# LAMMPS data file converted from rnd_512.xyz
512 atoms
1 atom types
0.0 17.23547752 xlo xhi
0.0 17.23547752 ylo yhi
0.0 17.23547752 zlo zhi

Masses

1 12.011

Atoms

1 1 0.949266 0.79824874 13.25206439
2 1 2.35264548 14.01294151 1.50539406
3 1 14.70748164 9.68493157 9.54047169
4 1 8.2941716 2.78818649 14.89429169
5 1 0.81031172 9.511651 1.97204622
6 1 13.55120269 2.70561074 14.17175871
7 1 17.05821516 3.25858614 10.85879243
8 1 10.81066432 1.42289472 12.33050263
9 1 3.33357341 13.24823802 12.1512883
10 1 4.96461454 14.65677788 2.04143944
11 1 5.11971003 16.75513562 10.81430969
12 1 6.57307151 9.34707887 9.88791446
13 1 10.83582315 8.52497511 9.49136058
14 1 5.87421689 9.60432851 1.52187833
15 1 17.09355831 5.21955864 4.33109353
16 1 8.45967695 8.71810037 13.37675644
17 1 15.73753115 8.7185038 13.27846784
18 1 10.94778661 5.29693637 15.77383343
19 1 15.7805466 14.12629346 9.11201377
20 1 9.96528449 12.21496753 3.58632943
21 1 2.26720022 5.9045438 10.45802456
22 1 8.11981122 10.71622472 16.73577804
23 1 0.09867034 2.84674148 4.2224955
24 1 9.20250467 4.31342705 7.06457289
25 1 10.05779504 15.44747574 9.56278448
26 1 11.08293315 6.77882377 14.67341658
27 1 4.6253127 10.1626286 16.16457713
28 1 12.76486621 8.2226771 7.2185758
29 1 1.37985895 3.84170942 15.32261014
30 1 12.07571014 0.29048746 8.35606939
31 1 10.76072716 6.40808868 4.14689488
32 1 12.87031156 2.53059972 12.79175938
33 1 11.22789579 3.25420237 16.92240297
34 1 9.28544528 4.89027681 16.64636112
35 1 11.75871338 10.71140661 4.91172531
36 1 1.56337237 11.98369034 11.40100864
37 1 17.02908947 1.89463251 2.65102078
38 1 8.03605842 14.69197056 14.7409162
39 1 1.0048838 15.00082729 7.42926721
40 1 16.34103516 5.54839531 8.58397231
41 1 0.25843582 8.23865475 7.64865256
42 1 15.0678458 3.81597384 1.96769012
43 1 15.37284343 6.66471492 17.00583158
44 1 14.73532184 12.37772345 1.87866638
45 1 6.42121339 12.13286656 2.84215536
46 1 15.49826162 17.09460505 9.20411554
47 1 0.26959891 12.40580601 5.7757534
48 1 17.01270859 15.61696739 1.66485665
49 1 11.74144542 15.39012875 12.78193132
50 1 10.56413946 14.02632588 5.84738154
51 1 5.75949979 4.35670575 3.84201955
52 1 15.83781606 0.73821916 2.68030835
53 1 7.9233867 13.65639832 12.34364389
54 1 5.66748453 6.23191406 11.21147592
55 1 11.17722602 8.48574336 2.67963207
56 1 7.26937723 0.01054545 11.34404677
57 1 5.31193638 15.76175247 1.65102188
58 1 5.05901571 0.52890121 9.04845632
59 1 16.94904939 4.39970374 15.88456771
60 1 15.34528661 16.46608384 4.28427819
61 1 15.6081238 8.48432942 3.07736812
62 1 8.73606289 4.29367533 9.59091545
63 1 0.00853504 13.66073509 9.19160027
64 1 14.35888169 13.78579316 12.05088641
65 1 9.18682007 10.36862046 4.22177074
66 1 15.89110807 14.97357878 4.01236944
67 1 15.1438079 7.27841986 11.9092342
68 1 16.49511471 16.00205307 10.5292748
69 1 8.53968084 12.26740245 5.85267543
70 1 4.7437255 11.50089679 11.9126865
71 1 8.5751605 9.63212448 14.95380368
72 1 10.41638886 10.51395537 10.89641688
73 1 5.16098857 8.42851752 13.2755275
74 1 2.34501801 8.08841638 7.59242052
75 1 0.11397121 9.1866794 6.16890545
76 1 13.96749831 5.05861758 4.82831879
77 1 13.01147862 10.78253944 4.0335689
78 1 5.17800686 15.66741083 9.48837775
79 1 9.27086161 10.90885229 8.3875725
80 1 3.67130661 8.95812302 3.42055661
81 1 16.17110259 5.06770703 3.1032349
82 1 11.45272171 4.62127286 9.13705669
83 1 2.66679749 13.90064118 4.23491752
84 1 5.19086373 10.33067103 9.55520189
85 1 16.63084593 6.37034018 6.85529965
86 1 7.26030544 2.18274471 5.55522545
87 1 10.42881734 2.04215873 6.8639473
88 1 16.970304 1.27431785 15.25956627
89 1 10.4653502 4.33533828 10.57347831
90 1 8.18040502 3.58043509 11.76443285
91 1 16.14129974 8.46033706 5.28571915
92 1 4.73732621 1.06349021 3.53790937
93 1 6.64943031 0.18073156 4.7444781
94 1 1.72543967 10.42605776 10.53260183
95 1 6.16183216 7.8475828 3.21327117
96 1 11.84615368 12.89427152 14.50018848
97 1 17.22720384 4.87213372 11.9601324
98 1 9.62410305 16.04689469 13.82192407
99 1 7.28647704 4.40159758 14.65375654
100 1 13.03747594 0.46624363 11.06434789
101 1 5.46266888 4.37533557 5.9135755
102 1 9.15328771 13.8835673 5.46902552
103 1 15.93163942 0.63028555 14.9344409
104 1 5.90484117 3.51306217 0.24559081
105 1 4.60972111 16.44987437 0.40090366
106 1 7.99418468 0.29565065 0.47991091
107 1 8.20525944 17.04769552 14.04601868
108 1 16.03012143 7.14704547 5.58328464
109 1 6.92569617 1.99237077 11.39054972
110 1 13.36537418 10.64989171 14.30897226
111 1 3.61188626 1.87774177 12.24926194
112 1 5.22003223 7.62575605 5.92240129
113 1 17.01993043 16.30718573 13.83374402
114 1 15.24308519 1.55724302 4.69709164
115 1 3.27512748 16.159745 5.74384803
116 1 17.1523534 7.60559281 3.57709076
117 1 12.99838244 1.83599962 16.03121136
118 1 11.6431488 6.28966126 16.00809265
119 1 11.65133828 16.19553031 5.03827366
120 1 3.06537732 9.81554953 8.57896289
121 1 6.77145428 0.57469766 16.27164642
122 1 10.16259394 5.59383575 10.11309018
123 1 1.36904908 6.77326408 14.88521884
124 1 5.48797837 11.67521228 8.69186786
125 1 16.77682157 13.52737978 1.13621261
126 1 12.20917632 14.92814657 6.87365841
127 1 17.07154147 12.96854316 10.7030372
128 1 7.7650981 14.62628044 6.25998058
129 1 14.82328008 5.38939627 17.1307151
130 1 9.90626748 13.59725675 1.59629471
131 1 3.08131552 1.59153285 13.40690396
132 1 15.99248063 6.26462699 2.48390071
133 1 6.36925664 15.49093133 0.0217852
134 1 13.22981318 15.59335109 0.83728695
135 1 0.15543952 10.77033224 1.6430431
136 1 6.54435884 4.16294329 13.2960423
137 1 9.81625219 15.90627994 2.20730141
138 1 12.74344248 13.93788146 8.16296636
139 1 4.20654577 10.53534325 6.14590617
140 1 2.53822024 15.29782607 4.25408934
141 1 4.85779271 4.13721933 0.49555278
142 1 6.55208739 1.64928504 1.32267328
143 1 10.00041944 8.08348817 5.09376312
144 1 2.2043814 9.079863 3.77693372
145 1 2.93218694 10.83090244 1.70014365
146 1 0.28037512 11.46939358 15.73140755
147 1 8.20879105 10.23032709 9.57614175
148 1 8.38451546 5.52353218 0.26505924
149 1 1.16471225 13.9586949 12.1380008
150 1 6.10313557 0.41318118 13.35805352
151 1 9.01441811 10.31528489 12.89555864
152 1 1.03697779 17.1921843 1.25762624
153 1 13.15332953 5.49336867 15.20856788
154 1 11.20177799 7.40255748 6.9785629
155 1 4.90811733 9.13755153 5.12931872
156 1 2.70491564 8.80987833 15.91911385
157 1 0.97947381 7.30837912 6.94644879
158 1 8.74750607 2.23331218 7.82792011
159 1 5.98147147 10.22498337 4.57076302
160 1 10.69946976 6.15607687 0.29651163
161 1 4.93369129 7.70152632 15.69361299
162 1 9.40897167 14.18292916 15.82361919
163 1 7.74375447 3.89284029 1.75416283
164 1 12.15708422 2.03521601 1.38739791
165 1 8.3509184 10.24294015 1.43125996
166 1 3.51199182 4.76812206 5.25733171
167 1 13.90220702 14.34724026 9.85064267
168 1 12.55227043 4.08176999 6.49865262
169 1 13.2534867 14.22691144 0.81815537
170 1 0.75655822 12.49919062 12.6017002
171 1 7.50732323 6.18159162 3.68713125
172 1 1.67445579 15.38996106 15.25970799
173 1 15.02532917 9.88204588 4.35463762
174 1 2.97192804 14.66240683 12.15711952
175 1 16.39904165 12.29432178 16.00913611
176 1 3.53097812 17.10770902 3.66674158
177 1 3.33516524 8.13313288 10.37812207
178 1 8.84093519 0.61502872 16.88622496
179 1 15.97314087 9.01829407 10.2533947
180 1 2.29104747 16.99052365 11.6758941
181 1 13.78173804 4.47859312 3.20931082
182 1 7.52147733 16.99408379 15.51664376
183 1 8.30074612 16.44051583 15.54813963
184 1 0.47829797 6.80564908 12.65829356
185 1 0.07816959 1.06692691 5.41183927
186 1 9.19301107 11.57299949 13.21099023
187 1 10.69960371 1.62084177 10.86480462
188 1 16.7161466 8.91218717 3.52789122
189 1 0.70494773 16.1563956 17.12490381
190 1 15.76317412 5.06189195 10.11420929
191 1 14.80629745 2.8934734 0.50604359
192 1 15.1190305 12.2381478 4.9855182
193 1 11.83453663 0.17944891 12.44978048
194 1 2.88402433 3.58077566 4.3475508
195 1 14.59792422 2.52532003 15.34930678
196 1 2.17714618 5.99873799 0.08788418
197 1 0.24643498 4.84316742 6.82057293
198 1 17.16592596 9.41421901 10.46339798
199 1 13.03805746 6.14595447 1.21572941
200 1 5.67496501 12.41502952 13.76545481
201 1 8.30056454 12.76648071 16.62241392
202 1 2.09457779 3.18042507 11.77811946
203 1 0.08451194 10.9157935 17.07173764
204 1 4.8068841 15.56809759 3.4382015
205 1 3.52172892 15.25334346 8.51477011
206 1 11.75361837 15.66782323 15.13058936
207 1 10.08392237 14.50250736 10.5625164
208 1 12.36563695 0.1430654 1.96805302
209 1 2.82168814 4.90344824 15.49467879
210 1 16.05128673 2.87731887 11.58023127
211 1 10.484761 16.28646807 14.88415296
212 1 12.38952967 8.93579757 13.43809032
213 1 6.70695049 0.1144573 8.20936411
214 1 9.75641661 8.19876278 0.53958221
215 1 3.63263623 5.3234335 14.53381293
216 1 12.1663657 12.41892173 2.37962174
217 1 15.7944877 5.59678086 5.20818121
218 1 5.48300345 0.48496988 11.99462353
219 1 2.1997828 5.86374932 5.51170445
220 1 13.48903227 6.37627423 2.64786468
221 1 8.76034207 9.28223032 16.66863564
222 1 13.56963728 5.7293016 9.58176469
223 1 12.66182845 7.98588258 15.09161293
224 1 10.50936406 16.57138449 13.03628136
225 1 16.64590196 9.40311219 7.75478687
226 1 11.06802253 12.00441212 14.99616224
227 1 17.19616789 5.33334575 14.96674986
228 1 9.06753911 13.15425748 10.51236418
229 1 11.98508718 2.78540748 15.60882461
230 1 4.95816083 13.24004127 6.30363841
231 1 16.33616784 1.0090023 6.1958128
232 1 16.41971761 12.59209447 9.33325178
233 1 6.16436728 2.765668 3.62237507
234 1 7.37184133 2.61305538 0.39406968
235 1 4.77080844 16.45215038 16.42815312
236 1 13.04495888 8.34293486 10.27817367
237 1 5.23650752 6.48197251 4.43433622
238 1 15.6994467 1.53592851 13.54294864
239 1 15.65462055 14.06604059 2.14657571
240 1 10.82335912 13.51381823 16.76091422
241 1 5.71267302 14.43418356 0.82469716
242 1 4.53629058 15.43696815 6.39550892
243 1 8.14555757 5.28065915 5.42444505
244 1 3.82486107 0.93687804 4.81032148
245 1 4.0821659 16.19119671 11.50541757
246 1 8.4842513 17.14889542 1.52182936
247 1 10.86020997 11.09243003 6.84980889
248 1 13.12954426 11.43586917 0.82282089
249 1 10.15166239 6.59252898 6.20604205
250 1 8.07145646 6.5978838 11.6859247
251 1 3.09104787 3.27663237 7.1150823
252 1 5.64468736 3.91612134 10.62057942
253 1 4.11182585 6.82887681 3.81605343
254 1 12.20823521 13.2656038 13.37576649
255 1 1.61314646 0.98237647 4.33496334
256 1 13.93081139 0.34977831 0.01050021
257 1 12.68080444 3.19862114 1.87237552
258 1 3.99086787 16.68729239 1.77948089
259 1 15.17418782 12.41362208 3.65129805
260 1 9.97036277 5.95900025 12.70755477
261 1 6.73365281 3.34778231 15.95499018
262 1 0.374928 14.38819506 3.95529433
263 1 6.68134244 17.21171055 0.82688536
264 1 2.81711476 5.01731634 8.03576885
265 1 5.14068201 14.49409492 14.89299952
266 1 12.43612455 1.16081304 5.79312282
267 1 6.74246036 8.19782542 15.2424172
268 1 3.00080333 10.68109911 12.33435773
269 1 14.89166102 2.85579904 5.81584533
270 1 15.73371316 2.41971018 5.41820986
271 1 16.39570276 3.30881898 6.823508
272 1 10.84662723 15.72500618 11.06941548
273 1 9.54175831 14.03809306 11.64410364
274 1 12.82085145 0.95274405 14.50542153
275 1 13.20506645 3.48874384 11.72063161
276 1 9.48415341 6.11852531 0.47811403
277 1 3.77061528 5.51862548 2.71492423
278 1 8.18745122 14.14401695 4.12603537
279 1 6.69396017 12.00026627 14.74898687
280 1 10.83826893 14.80477109 0.31195772
281 1 11.81508352 16.31871494 2.85728045
282 1 7.70300862 9.77805026 3.47320926
283 1 13.48118605 13.33386534 6.22990761
284 1 14.48197387 13.46502194 8.27228731
285 1 2.05826527 15.75586379 2.89665798
286 1 0.9641135 6.32295589 2.74163193
287 1 16.38448748 2.44564913 8.65860258
288 1 11.54934699 14.74288258 3.06258464
289 1 7.60703665 12.935087 8.46634911
290 1 13.86971054 9.46239217 8.44441735
291 1 2.80117725 9.21254782 2.27309469
292 1 12.81872214 1.38804993 2.51940115
293 1 15.04131864 5.19571551 14.7179188
294 1 6.98506879 16.10738302 2.7397906
295 1 14.03938154 16.29523002 9.66629323
296 1 4.43604887 0.8501203 1.13824132
297 1 7.04197256 0.78591453 14.87411126
298 1 15.63635812 13.55059657 5.5749853
299 1 6.6325344 8.95793644 14.20014027
300 1 6.55417497 9.11452344 7.94662636
301 1 4.55650267 7.2678455 7.68070114
302 1 1.73082315 7.85419859 9.65599344
303 1 6.51254486 7.34297255 1.86504571
304 1 4.5625076 11.9986564 13.44646322
305 1 14.50487534 4.46110212 7.77085273
306 1 0.78751923 15.35083739 11.91305089
307 1 5.65888254 3.23159071 12.88208065
308 1 11.55028318 9.7534436 9.5043161
309 1 3.58598018 6.44223588 5.53478972
310 1 8.15695695 13.99279431 9.90457819
311 1 8.37470066 12.74839367 2.16865855
312 1 0.42481865 15.05273708 15.23834009
313 1 8.11728254 3.39922668 7.031155
314 1 16.61932799 0.00432027 1.16097873
315 1 15.95685617 8.82964149 15.8218005
316 1 3.50142036 11.92331304 15.09961738
317 1 6.67297728 5.75804122 6.78553473
318 1 2.58971873 3.31243171 9.06070177
319 1 13.94668216 15.60735591 8.11128932
320 1 13.38850693 14.98946132 8.22792796
321 1 11.42752936 8.82414314 16.33117755
322 1 11.84777144 5.31386563 0.27678335
323 1 9.07312974 7.41492485 6.71664805
324 1 13.13534681 10.91813482 1.93284637
325 1 0.32106783 3.76908827 1.76033908
326 1 2.54496714 12.26348619 3.1471164
327 1 6.04352615 13.24778511 0.96174034
328 1 0.62048599 5.48161303 7.96434812
329 1 1.43557927 11.64433775 0.42617439
330 1 17.10358809 13.86246295 5.14021905
331 1 14.58097 6.16605732 14.16602882
332 1 4.04657002 0.14760766 9.91921032
333 1 8.66865532 3.13061946 3.24484742
334 1 6.30112523 14.01271612 10.79753857
335 1 10.89632909 2.95791437 11.32246607
336 1 0.61545717 1.44584298 8.75472919
337 1 3.63982935 5.58020176 9.1579436
338 1 4.55226946 7.5828488 2.0233848
339 1 9.67745987 5.3572388 7.54214404
340 1 12.37273449 7.05388445 16.64331229
341 1 15.44344963 4.6646624 9.02096667
342 1 11.25285305 0.16245091 7.0879994
343 1 5.22989346 1.83941264 10.08410242
344 1 9.46476322 0.19671576 8.67041964
345 1 15.00258874 5.71818314 8.58139143
346 1 12.43497081 3.67922434 9.91761438
347 1 5.40866197 16.53689577 14.73358173
348 1 11.44113517 13.95394061 14.95023917
349 1 14.89304967 12.91416405 9.98329676
350 1 7.60182909 1.96368486 3.68255477
351 1 14.86795673 6.50179235 4.75234192
352 1 6.95332314 15.9545857 9.64787522
353 1 16.16154318 2.61014312 16.38240418
354 1 3.97482055 15.21355397 0.40195242
355 1 1.88880286 14.89394376 11.30006558
356 1 12.71130729 15.89081666 10.47285009
357 1 3.25853673 1.60597071 9.61670693
358 1 1.56791734 7.9024598 5.84080283
359 1 0.97028117 2.60983986 14.38706008
360 1 17.19732871 11.77773222 13.83774064
361 1 5.03991329 16.84785593 6.04462406
362 1 5.39324222 6.16792508 2.27248688
363 1 11.31518044 8.13329733 0.52776555
364 1 14.24362285 4.23491442 12.08374993
365 1 10.58524221 11.26724187 1.88391032
366 1 2.4632511 6.72634061 6.47726556
367 1 13.2463439 8.73154199 1.48383764
368 1 1.32167577 2.59942509 5.55792099
369 1 5.54027469 3.13315464 8.10831571
370 1 12.29049951 6.26795146 12.82144009
371 1 12.25356355 13.96219778 10.5134663
372 1 9.13586071 3.15555888 12.57635561
373 1 13.08478954 9.22542553 3.55725908
374 1 8.69754628 16.55652123 16.75489371
375 1 9.95739855 0.36236515 6.95927132
376 1 7.41825149 9.63501471 12.77366077
377 1 13.98524908 11.72150094 15.63803562
378 1 17.11579752 6.41789729 15.86483553
379 1 4.51795079 9.75361028 13.74455898
380 1 4.39389165 14.30300766 9.91269802
381 1 16.945675 1.17352036 10.37417926
382 1 9.3021881 6.45249664 2.87427103
383 1 2.21543604 13.35926986 15.30812959
384 1 1.50590507 14.88182808 0.44111267
385 1 2.55693494 1.24839282 8.28233174
386 1 14.98774382 4.46137168 4.39592736
387 1 4.67510243 9.49973244 8.44571366
388 1 10.93474128 1.30145949 5.34262225
389 1 13.02783203 9.42078562 0.1980917
390 1 12.45281471 1.5153679 3.9326807
391 1 4.26473038 4.36256235 8.63055484
392 1 16.23272198 0.6788599 16.37665208
393 1 14.06990412 4.01962524 16.27900093
394 1 15.24232386 1.62954553 9.87231546
395 1 2.04858728 17.13116435 2.08409231
396 1 0.38561311 0.20759888 4.35111898
397 1 17.17670611 8.42681759 11.8932277
398 1 14.36260477 0.10597084 8.2644508
399 1 15.3172661 15.65611445 10.02496068
400 1 7.99209858 9.25920298 6.48153893
401 1 1.24337705 12.86946962 8.62751947
402 1 14.50792419 10.0039436 11.56068769
403 1 12.68424825 6.85773631 8.9605104
404 1 3.26176497 9.69726876 0.02574201
405 1 12.4415745 6.50284052 6.37607933
406 1 1.39698958 17.00704321 16.21330928
407 1 2.6150903 13.50817655 10.71520591
408 1 2.73735924 15.98891456 14.17255099
409 1 16.54611675 10.5445157 0.75272168
410 1 5.96701804 7.69646807 16.85308727
411 1 13.20324663 3.20174771 15.74308644
412 1 15.20848374 13.43462771 13.34507248
413 1 6.89341013 13.34549896 5.46618203
414 1 14.9513809 11.37764747 7.28952068
415 1 2.51772597 2.00382568 10.88795523
416 1 3.82665874 10.72628453 9.4606895
417 1 14.70361048 8.74654899 0.52044479
418 1 13.17678963 16.24331032 16.26619055
419 1 12.28191686 13.08091702 5.21042123
420 1 7.69207048 4.44545351 16.7296872
421 1 14.85945481 17.14044677 12.43802686
422 1 7.98299347 14.44656649 13.49403273
423 1 14.87889237 16.40117912 2.93164513
424 1 11.52336824 2.6373036 12.86960711
425 1 14.19859796 11.3271418 10.54248345
426 1 11.43874901 1.19787883 2.66176473
427 1 5.89477273 9.66661585 3.30343322
428 1 0.07775313 10.07247753 9.19134957
429 1 12.51964288 13.27146106 16.05639504
430 1 9.45061839 2.59599763 11.33701964
431 1 13.23485796 10.39831164 11.29813682
432 1 6.32484635 9.7416829 11.40021582
433 1 11.96872235 1.34536804 9.86227352
434 1 1.58871421 16.60866201 3.67040742
435 1 15.58486723 16.9912193 10.74717529
436 1 13.34436173 14.98439527 16.60487034
437 1 0.18151204 1.32840184 3.94987063
438 1 13.04957718 10.05252039 7.54166844
439 1 10.79876343 11.16596256 16.41588248
440 1 6.37758923 9.74559676 16.95973447
441 1 11.82390318 16.48897939 9.02978254
442 1 16.99227515 16.55039507 11.52721618
443 1 10.01273611 12.6260564 14.10366978
444 1 5.76123439 2.71761759 5.27159068
445 1 12.70566418 11.52664308 5.05896285
446 1 8.00824397 6.25435576 9.41797552
447 1 4.49724982 3.74386548 3.7661554
448 1 1.23057226 6.52009536 4.99322842
449 1 7.51351524 6.87391584 0.67064605
450 1 9.90111762 4.54420321 14.79650089
451 1 15.72714995 5.13756017 6.63751669
452 1 10.54041982 16.18000669 16.36274484
453 1 9.70104033 12.22509796 4.87801695
454 1 3.23134343 5.64249012 11.5741033
455 1 13.1129408 12.22644481 11.06825322
456 1 12.62492238 2.95943824 5.58923304
457 1 9.23676715 11.59672146 2.63887804
458 1 5.84773309 11.76153208 11.13186689
459 1 13.37714366 9.93393486 5.26153855
460 1 7.66855317 4.60390144 12.82641381
461 1 7.40632629 8.46264802 8.62683563
462 1 0.83956526 4.38751644 5.70730133
463 1 16.65018738 11.10033607 8.66532567
464 1 6.4225933 6.90916829 15.02665725
465 1 4.1217172 12.33437085 9.23392449
466 1 13.94349758 9.75463729 13.43737188
467 1 9.59826589 11.34602848 16.5418619
468 1 7.60469995 13.94854833 0.84691186
469 1 12.42651698 11.74808882 9.62829861
470 1 10.61339764 0.59666611 10.22506646
471 1 12.7304092 10.78654066 15.52165587
472 1 5.61055175 3.19800566 2.48765656
473 1 2.12597688 4.51063521 13.44921221
474 1 9.04008964 0.35712103 5.76052849
475 1 0.77375579 3.80536648 9.27803791
476 1 1.56128653 11.60736455 7.16351653
477 1 9.50755127 1.47935623 5.81816674
478 1 11.44871364 9.49492377 4.99880582
479 1 16.3350863 12.41113477 11.54576328
480 1 1.8886454 7.71341973 3.63860028
481 1 15.36901768 0.35945899 1.12757611
482 1 4.51159582 6.71375103 13.33974193
483 1 4.46341032 9.40871232 2.33702281
484 1 4.10048117 13.37614209 1.90208382
485 1 15.21182081 8.07384752 14.94458611
486 1 6.76428598 11.41800439 4.13226505
487 1 1.15120243 1.76598141 1.26066103
488 1 8.81236544 8.22135847 8.68343683
489 1 13.40041738 9.02364336 15.73676343
490 1 6.96859234 1.23316156 9.34138032
491 1 8.57311483 15.9134844 9.08275979
492 1 6.00728817 4.18652063 8.89668846
493 1 0.82404391 4.85174208 3.26370058
494 1 15.65354531 15.53678834 1.815037
495 1 6.9967789 14.94215389 12.17870995
496 1 17.1324994 10.5061192 6.62644865
497 1 3.10920982 3.52263773 1.56422125
498 1 15.57249304 4.37504765 12.97170575
499 1 0.91673969 11.70899403 8.66008608
500 1 8.17241414 8.74716295 2.4340363
501 1 9.43836792 13.78582865 14.44927553
502 1 11.09348452 6.50955653 9.44807886
503 1 13.8734745 15.80473487 15.21385459
504 1 16.36964656 11.10683222 12.66774235
505 1 0.95285451 1.43068833 11.75986253
506 1 2.54803003 7.11233785 8.83985297
507 1 6.54560738 8.55342489 10.89796866
508 1 2.55052768 17.20495052 8.76897054
509 1 2.49955331 16.38383021 7.38566699
510 1 5.06480614 4.97941307 10.796356
511 1 9.66953627 3.37337237 0.15997413
512 1 6.52515005 3.3585105 11.89175995
