2
Lattice="3.43508 0.0 0.0 0.3906604191193754 3.579575551072148 0.0 0.3906604191193754 0.04883316305464269 3.579242440519998" Properties=species:S:1:pos:R:3:initial_magmoms:R:1:castep_labels:S:1 pbc="T T T"
Si       2.91350731       0.33310312       3.47892164       0.00000000 NULL
Si       1.30289352       0.14526657       3.29363035       0.00000000 NULL
7
Lattice="5.08452 0.0 0.0 -0.09901252247072173 5.083555856956231 0.0 -2.4927570351496997 -2.5417812896921244 5.635695719171034" Properties=species:S:1:pos:R:3:initial_magmoms:R:1:castep_labels:S:1 pbc="T T T"
Si       1.43753240       0.14116377       2.50048718       0.00000000 NULL
Si       2.70490885      -1.10176957       3.13520854       0.00000000 NULL
Si      -1.15423423       2.68294081       3.13520854       0.00000000 NULL
Si       0.11314346       1.44000873       2.50048718       0.00000000 NULL
Si       2.09121353       3.82881277       0.00000000       0.00000000 NULL
Si       1.29460682      -0.37640458       5.63569572       0.00000000 NULL
Si       1.61082893       1.64250859       0.00000000       0.00000000 NULL
1
Lattice="2.01716 0.0 0.0 0.20910842385192177 2.7122410201112594 0.0 0.80321514227005 0.3441522175376634 3.9075748763769083" Properties=species:S:1:pos:R:3:initial_magmoms:R:1:castep_labels:S:1 pbc="T T T"
Si       1.89592251       0.54008307       0.93106255       0.00000000 NULL
5
Lattice="2.56976 0.0 0.0 0.15558959364078273 4.498179924730747 0.0 0.010192771135246019 2.1817099483823528 9.372127720370974" Properties=species:S:1:pos:R:3:initial_magmoms:R:1:castep_labels:S:1 pbc="T T T"
Si       1.00263593       3.44774837       5.23182722       0.00000000 NULL
Si       0.45819954       3.19472576       3.80839878       0.00000000 NULL
Si       2.58460797       2.66768767       7.96966378       0.00000000 NULL
Si       1.17669906       3.96532189       6.63646549       0.00000000 NULL
Si       1.56423120       5.63277246       8.66506816       0.00000000 NULL
9
Lattice="4.8656 0.0 0.0 1.31986003777913 5.4737522484648204 0.0 2.4158099152977623 -0.25727497169629976 6.8673570219544935" Properties=species:S:1:pos:R:3:initial_magmoms:R:1:castep_labels:S:1 pbc="T T T"
Si       1.69217041       0.02867566       0.35727219       0.00000000 NULL
Si       5.66429287       3.60953593       2.11302189       0.00000000 NULL
Si       5.30761181       0.53697255       6.65460630       0.00000000 NULL
Si       5.78565816       3.93631278       3.58101285       0.00000000 NULL
Si       6.20095675       1.86465694       5.65254491       0.00000000 NULL
Si       4.97598254      -0.12105444       3.71292997       0.00000000 NULL
Si       2.24952561       4.29491022       1.90923582       0.00000000 NULL
Si       5.37688136       0.78591725       4.84046964       0.00000000 NULL
Si       3.68397176       3.40218099       6.86398996       0.00000000 NULL
7
Lattice="5.7844 0.0 0.0 -2.3872275991384346 5.268816541682936 0.0 -1.826310638564584 -2.5520551605685493 4.85910354580773" Properties=species:S:1:pos:R:3:initial_magmoms:R:1:castep_labels:S:1 pbc="T T T"
Si      -1.00180682       3.46411878       1.10835229       0.00000000 NULL
Si       1.28986211       0.07975704       2.17592843       0.00000000 NULL
Si       2.21560343      -0.51713282       1.10835229       0.00000000 NULL
Si      -1.92754814       4.06100865       2.17592843       0.00000000 NULL
Si       1.54413203      -0.99560901       4.85531490       0.00000000 NULL
Si       1.64314059       2.67015802       1.98815712       0.00000000 NULL
Si       2.79483817      -1.80202631       3.43105140       0.00000000 NULL
6
Lattice="3.63672 0.0 0.0 0.0 4.85706 0.0 0.0 0.0 7.07974" Properties=species:S:1:pos:R:3:initial_magmoms:R:1:castep_labels:S:1 pbc="T T T"
Si       1.05827025       0.58762509       0.14105178       0.00000000 NULL
Si       2.57844975       0.58762509       6.93868822       0.00000000 NULL
Si       2.87663025       4.26943491       3.39881822       0.00000000 NULL
Si       0.76008975       4.26943491       3.68092178       0.00000000 NULL
Si       0.00000000       1.95801543       0.00000000       0.00000000 NULL
Si       1.81836000       2.89904457       3.53987000       0.00000000 NULL
9
Lattice="3.7628 0.0 0.0 -0.23295892130323642 4.584835406367958 0.0 -1.5179595370972707 -1.4564011068739984 10.686211225201925" Properties=species:S:1:pos:R:3:initial_magmoms:R:1:castep_labels:S:1 pbc="T T T"
Si      -0.28263894       1.77267686       5.00250186       0.00000000 NULL
Si       2.12346473       3.92640869       3.49478860       0.00000000 NULL
Si       2.57729597       2.89824264       4.52821575       0.00000000 NULL
Si       3.05470080       4.06030116       1.59012533       0.00000000 NULL
Si       0.03339782       0.18243549       6.56701448       0.00000000 NULL
Si       1.46314591       1.56191068       0.63567462       0.00000000 NULL
Si      -0.38557717       2.02850556       3.48191064       0.00000000 NULL
Si       0.77156354       4.00624263       2.82335471       0.00000000 NULL
Si       2.56165527       0.24031231       0.22176026       0.00000000 NULL
6
Lattice="3.93819 0.0 0.0 0.785466443861712 5.400427763433859 0.0 0.8983680048372137 1.104142630134295 6.026185830241624" Properties=species:S:1:pos:R:3:initial_magmoms:R:1:castep_labels:S:1 pbc="T T T"
Si       3.69708107       6.03471589       3.82250308       0.00000000 NULL
Si       3.16574099       3.97364582       0.70172885       0.00000000 NULL
Si       0.58145168       1.61446098       2.46124435       0.00000000 NULL
Si       2.15695139       3.69818045       3.42500863       0.00000000 NULL
Si       4.81435008       3.59758656       4.20880690       0.00000000 NULL
Si       1.87283157       1.70125881       5.94533189       0.00000000 NULL
10
Lattice="4.6539 0.0 0.0 -0.20914623500366902 6.4351221933063405 0.0 -0.07381058893033693 -1.2087594708154124 6.762330659378895" Properties=species:S:1:pos:R:3:initial_magmoms:R:1:castep_labels:S:1 pbc="T T T"
Si      -0.00455671       5.47574690       1.67311421       0.00000000 NULL
Si       0.18869028      -0.93831502       5.67745401       0.00000000 NULL
Si       2.23598199       4.41499321       2.67397364       0.00000000 NULL
Si       3.58766250       1.12451075       1.09522910       0.00000000 NULL
Si       0.09595630       1.56330186       6.49284299       0.00000000 NULL
Si       1.87079098       3.92953870       5.22277856       0.00000000 NULL
Si       1.87674566       0.06189471       3.10973349       0.00000000 NULL
Si       2.01597061       1.10887435       5.58391272       0.00000000 NULL
Si       0.43457017       4.22050425       6.58470925       0.00000000 NULL
Si       2.81970726       2.09676043       6.45865400       0.00000000 NULL
10
Lattice="2.98812 0.0 0.0 0.0 9.14468 0.0 0.0 -4.572339999999997 7.919525189479481" Properties=species:S:1:pos:R:3:initial_magmoms:R:1:castep_labels:S:1 pbc="T T T"
Si       0.28328095       4.64769079       4.88188439       0.00000000 NULL
Si       0.28328095       2.59299870       1.58407610       0.00000000 NULL
Si       0.28328095       6.47633050       1.45356470       0.00000000 NULL
Si       2.01386618       7.71199807       1.82402267       0.00000000 NULL
Si       2.01386618       3.70903100       5.76677491       0.00000000 NULL
Si       2.01386618       2.29599093       0.32872761       0.00000000 NULL
Si       0.34063104      -0.63620042       1.80512826       0.00000000 NULL
Si       0.34063104       3.32715328       6.46599534       0.00000000 NULL
Si       0.34063104      -2.69095286       7.56792678       0.00000000 NULL
Si       2.37501575       9.14468000       0.00000000       0.00000000 NULL
7
Lattice="4.67651 0.0 0.0 0.0 5.74907 0.0 0.0 -1.396583994502198 5.576859242548648" Properties=species:S:1:pos:R:3:initial_magmoms:R:1:castep_labels:S:1 pbc="T T T"
Si       2.98361899       1.74144800       0.67986543       0.00000000 NULL
Si       2.98361899       2.61103801       4.89699381       0.00000000 NULL
Si       2.98361899       4.11602421       3.72242026       0.00000000 NULL
Si       2.98361899       0.23646179       1.85443899       0.00000000 NULL
Si       4.22169929       1.56918325       3.26221226       0.00000000 NULL
Si       4.22169929       2.78330275       2.31464699       0.00000000 NULL
Si       0.06133664       0.00000000       0.00000000       0.00000000 NULL
3
Lattice="3.89282 0.0 0.0 0.0 4.37647 0.0 0.0 -2.188234999999999 3.7901341989004833" Properties=species:S:1:pos:R:3:initial_magmoms:R:1:castep_labels:S:1 pbc="T T T"
Si       2.84621899       0.67386106       1.50567212       0.00000000 NULL
Si       0.25100592       0.54735416       3.62087893       0.00000000 NULL
Si       1.54861246      -1.22121522       2.45371734       0.00000000 NULL
5
Lattice="4.09158 0.0 0.0 -2.045789999999999 3.543412221616334 0.0 0.0 0.0 7.44002" Properties=species:S:1:pos:R:3:initial_magmoms:R:1:castep_labels:S:1 pbc="T T T"
Si       1.09119472       3.35295771       5.99985979       0.00000000 NULL
Si       0.31235920       0.92193102       5.99985979       0.00000000 NULL
Si      -1.40355392       2.81193572       5.99985979       0.00000000 NULL
Si      -0.00000020       2.36227493       3.90245343       0.00000000 NULL
Si      -0.00000020       2.36227493       6.72484585       0.00000000 NULL
9
Lattice="6.35158 0.0 0.0 -2.2501036490883024 5.939663463931227 0.0 -2.0507388925065895 -2.96983277038196 5.2265793600715815" Properties=species:S:1:pos:R:3:initial_magmoms:R:1:castep_labels:S:1 pbc="T T T"
Si      -1.01578348       4.23981625       2.37751555       0.00000000 NULL
Si       2.35268496      -0.77706488       1.98157760       0.00000000 NULL
Si       0.51742215       3.69636789       2.54204931       0.00000000 NULL
Si       2.24715129      -1.21945787       3.55201626       0.00000000 NULL
Si       0.71053503      -1.30294374       3.77255857       0.00000000 NULL
Si       1.23406584       4.34606426       1.32503874       0.00000000 NULL
Si      -0.60866816       2.75236240       2.19378142       0.00000000 NULL
Si       2.76554221       0.14417847       3.16177998       0.00000000 NULL
Si       3.12594845       2.22737354       1.30664484       0.00000000 NULL
9
Lattice="4.87926 0.0 0.0 -1.734373055981451 4.560606127510417 0.0 -1.5103138928344992 -2.190204899805932 8.906318632189015" Properties=species:S:1:pos:R:3:initial_magmoms:R:1:castep_labels:S:1 pbc="T T T"
Si      -2.24124924       2.28223735       7.91245274       0.00000000 NULL
Si      -1.29528679       3.65403933       0.99386589       0.00000000 NULL
Si      -0.50599142       1.14605526       4.11954376       0.00000000 NULL
Si       0.38350536       2.43597269       4.78677487       0.00000000 NULL
Si       1.19238822       2.01279938       8.35012438       0.00000000 NULL
Si       0.17706941       0.54041921       0.55619425       0.00000000 NULL
Si      -0.18815637       3.38310803       3.75390376       0.00000000 NULL
Si      -1.59447327       1.34371597       5.15241488       0.00000000 NULL
Si       2.52375176       1.62430320       0.00000000       0.00000000 NULL
10
Lattice="5.24122 0.0 0.0 0.0 5.89877 0.0 -2.620610101393667 0.0 6.652285375423507" Properties=species:S:1:pos:R:3:initial_magmoms:R:1:castep_labels:S:1 pbc="T T T"
Si       1.34138665       1.44302731       6.00325316       0.00000000 NULL
Si      -1.34138736       4.45574269       6.00325316       0.00000000 NULL
Si       1.27922264       4.39241231       6.00325316       0.00000000 NULL
Si      -1.27922335       1.50635769       6.00325316       0.00000000 NULL
Si       3.16049601       0.54647385       0.75332874       0.00000000 NULL
Si       2.08072397       5.35229615       0.75332874       0.00000000 NULL
Si       4.70133397       3.49585885       0.75332874       0.00000000 NULL
Si       0.53988601       2.40291115       0.75332874       0.00000000 NULL
Si      -0.00000005       0.00000000       3.17336497       0.00000000 NULL
Si       2.62060995       2.94938500       3.17336497       0.00000000 NULL
3
Lattice="2.51451 0.0 0.0 0.0 4.25295 0.0 0.0 0.0 5.65557" Properties=species:S:1:pos:R:3:initial_magmoms:R:1:castep_labels:S:1 pbc="T T T"
Si       2.16065005       2.12647500       3.59872685       0.00000000 NULL
Si       2.16065005       2.12647500       2.05684315       0.00000000 NULL
Si       1.39289672       2.12647500       5.65557000       0.00000000 NULL
7
Lattice="4.58139 0.0 0.0 -0.022999695534491882 4.5813322675948 0.0 -1.022469283077415 -1.0276152778313563 6.885628567591397" Properties=species:S:1:pos:R:3:initial_magmoms:R:1:castep_labels:S:1 pbc="T T T"
Si       0.27124647       1.45945223       2.41927937       0.00000000 NULL
Si       1.45807211       0.27856985       2.41927937       0.00000000 NULL
Si       0.63777074       1.72691932       4.04339740       0.00000000 NULL
Si       1.72369579       0.64643226       4.04339740       0.00000000 NULL
Si      -0.02646332       3.39122287       6.36334056       0.00000000 NULL
Si       3.39131299      -0.00943822       6.36334056       0.00000000 NULL
Si       0.19657989       0.19756926       3.24459976       0.00000000 NULL
4
Lattice="2.05022 0.0 0.0 -0.7580567973793652 6.801475867783913 0.0 -0.37594956379571776 -3.145412425056783 6.182155269958868" Properties=species:S:1:pos:R:3:initial_magmoms:R:1:castep_labels:S:1 pbc="T T T"
Si       0.38443781       5.92009723       1.68288282       0.00000000 NULL
Si       0.67889360       3.16959659       2.42134312       0.00000000 NULL
Si      -0.22903135       0.38814438       2.63678443       0.00000000 NULL
Si       1.40084166       4.80289253       0.57206141       0.00000000 NULL
11
Lattice="6.30021 0.0 0.0 1.6783793745234556 6.07253560872839 0.0 1.6783793745234556 1.277421112721158 5.936655962749441" Properties=species:S:1:pos:R:3:initial_magmoms:R:1:castep_labels:S:1 pbc="T T T"
Si       3.70703904       5.61994795       1.35688387       0.00000000 NULL
Si       3.40563421       2.90474677       5.20876079       0.00000000 NULL
Si       6.40441381       1.76321316       1.74403279       0.00000000 NULL
Si       4.79145629       1.59752868       0.65157471       0.00000000 NULL
Si       2.21433462       4.35908308       1.42471669       0.00000000 NULL
Si       2.81624441       1.51897777       3.96183982       0.00000000 NULL
Si       8.08756027       5.57763419       2.22743213       0.00000000 NULL
Si       5.38434120       6.90261261       4.98426496       0.00000000 NULL
Si       7.53060241       3.50484112       5.69966703       0.00000000 NULL
Si       6.97496682       5.30867456       4.28788572       0.00000000 NULL
Si       5.87315111       4.47007830       3.61054058       0.00000000 NULL
12
Lattice="4.15405 0.0 0.0 -0.9514480014647907 7.210063876652455 0.0 -0.5230475833535773 -1.9966977771007375 8.164130610944987" Properties=species:S:1:pos:R:3:initial_magmoms:R:1:castep_labels:S:1 pbc="T T T"
Si       3.21926609       5.50171679       1.98849321       0.00000000 NULL
Si       0.77030749       2.94223594       1.00800480       0.00000000 NULL
Si       3.79150585       0.47943869       0.50916988       0.00000000 NULL
Si      -0.99624857       5.84836723       3.45336520       0.00000000 NULL
Si       0.42735980       2.63198152       7.61530754       0.00000000 NULL
Si       2.26898937      -0.24296922       5.11082414       0.00000000 NULL
Si       1.36158136       3.97270801       4.07670964       0.00000000 NULL
Si       1.92868987       1.94537210       0.97757953       0.00000000 NULL
Si       0.01904721       0.20872280       7.84345907       0.00000000 NULL
Si      -0.35004744       1.11799473       4.07193770       0.00000000 NULL
Si       0.65245285      -0.39438234       6.61340299       0.00000000 NULL
Si       2.73149614       3.37592477       3.70097512       0.00000000 NULL
1
Lattice="2.55265 0.0 0.0 0.9556434884881344 2.468043168769588 0.0 0.4332553899192446 0.03649992725494184 3.2689014758044186" Properties=species:S:1:pos:R:3:initial_magmoms:R:1:castep_labels:S:1 pbc="T T T"
Si       3.03213371       2.15636563       0.83368363       0.00000000 NULL
11
Lattice="4.86582 0.0 0.0 0.6452603274635261 6.324559014026326 0.0 1.4092127220044004 -0.09602000688413669 7.2834427300569144" Properties=species:S:1:pos:R:3:initial_magmoms:R:1:castep_labels:S:1 pbc="T T T"
Si       5.31997585       2.51634928       2.45740517       0.00000000 NULL
Si       1.64954901       1.54244768       3.93614070       0.00000000 NULL
Si       5.22513681       2.56287530       4.28520916       0.00000000 NULL
Si       4.16177430       3.02758380       3.33013350       0.00000000 NULL
Si       3.20814594       5.21963830       5.10193218       0.00000000 NULL
Si       2.32044660       1.31621860       0.49508474       0.00000000 NULL
Si       2.57179671       4.72322013       6.45909394       0.00000000 NULL
Si       1.84213096       2.81811861       1.94451897       0.00000000 NULL
Si       2.66838527       5.88896417       3.44191395       0.00000000 NULL
Si       4.71223199       4.70255937       0.29979524       0.00000000 NULL
Si       1.75515714       4.04067062       0.85506379       0.00000000 NULL
12
Lattice="5.17614 0.0 0.0 -0.3122650327888386 6.801505547906096 0.0 -1.7758803505349505 -2.4840066766183444 7.27867018376292" Properties=species:S:1:pos:R:3:initial_magmoms:R:1:castep_labels:S:1 pbc="T T T"
Si      -0.79398212       3.09888431       3.78893214       0.00000000 NULL
Si       1.81692938       1.17832302       2.03001529       0.00000000 NULL
Si       1.12495054       1.26950526       4.16794196       0.00000000 NULL
Si       3.22428853      -1.32093524       5.21503326       0.00000000 NULL
Si       4.52013474       0.18917783       0.49626337       0.00000000 NULL
Si       0.02031661       4.03553208       2.76610502       0.00000000 NULL
Si       1.30481982      -0.97039056       6.70570782       0.00000000 NULL
Si       0.71124705       5.17582017       3.50276249       0.00000000 NULL
Si       2.61309324       3.15675671       6.93890768       0.00000000 NULL
Si      -0.04285568      -0.71987480       4.09310996       0.00000000 NULL
Si       1.91577024       3.77618852       4.64688064       0.00000000 NULL
Si       1.28704915       4.82655754       5.56874169       0.00000000 NULL
2
Lattice="2.83288 0.0 0.0 -1.416439999999999 2.4533460458728604 0.0 0.0 0.0 6.30507" Properties=species:S:1:pos:R:3:initial_magmoms:R:1:castep_labels:S:1 pbc="T T T"
Si       0.00000000       0.00000000       0.47481528       0.00000000 NULL
Si      -0.00000014       1.63556411       4.04182982       0.00000000 NULL
9
Lattice="6.21819 0.0 0.0 -2.230172987688804 5.804499575422777 0.0 -2.230172987688804 -2.739990680042806 5.117095503736641" Properties=species:S:1:pos:R:3:initial_magmoms:R:1:castep_labels:S:1 pbc="T T T"
Si       3.05240731       3.68637371       1.73822208       0.00000000 NULL
Si      -2.35223019       0.10481234       4.59227288       0.00000000 NULL
Si       0.11619352       2.30300627       2.85693173       0.00000000 NULL
Si       2.69931740       0.03482632       1.04676380       0.00000000 NULL
Si       0.10424042       0.52665882       1.57906147       0.00000000 NULL
Si       4.62972263       0.49308869       0.12370578       0.00000000 NULL
Si       2.21207811       1.53735301       4.62400655       0.00000000 NULL
Si      -3.43035310       3.57191727       3.90741720       0.00000000 NULL
Si      -2.23017299       1.53225445       2.55854775       0.00000000 NULL
10
Lattice="5.80435 0.0 0.0 0.0 6.17037 0.0 -2.7034510167214774 0.0 5.924105170934055" Properties=species:S:1:pos:R:3:initial_magmoms:R:1:castep_labels:S:1 pbc="T T T"
Si       3.43859537       3.13284370       0.81989556       0.00000000 NULL
Si      -0.33769639       0.04765870       5.10420961       0.00000000 NULL
Si      -0.02287460       3.54964726       4.14887301       0.00000000 NULL
Si       3.12377358       0.46446226       1.77523217       0.00000000 NULL
Si       4.80023235       3.37849724       1.41291982       0.00000000 NULL
Si      -1.69933337       0.29331224       4.51118535       0.00000000 NULL
Si       4.67477112       1.43864953       0.02157322       0.00000000 NULL
Si      -1.57387214       4.52383453       5.90253195       0.00000000 NULL
Si       2.82197006       1.72735929       0.98499682       0.00000000 NULL
Si       0.27892893       4.81254429       4.93910835       0.00000000 NULL
1
Lattice="2.47535 0.0 0.0 0.0 3.031 0.0 -1.1154005940843712 0.0 2.916142909240943" Properties=species:S:1:pos:R:3:initial_magmoms:R:1:castep_labels:S:1 pbc="T T T"
Si      -0.03083380       0.00000000       0.31144873       0.00000000 NULL
7
Lattice="3.62547 0.0 0.0 1.6723948911894277 5.396572651305967 0.0 1.3280948403281845 0.24928748288822325 7.4805613761848715" Properties=species:S:1:pos:R:3:initial_magmoms:R:1:castep_labels:S:1 pbc="T T T"
Si       2.68938923       0.24028129       3.01146755       0.00000000 NULL
Si       3.93657050       5.40557884       4.46909383       0.00000000 NULL
Si       2.62809125       1.09879007       1.78168196       0.00000000 NULL
Si       3.99786848       4.54707006       5.69887942       0.00000000 NULL
Si       1.88478663       1.48368401       4.61489147       0.00000000 NULL
Si       4.74117311       4.16217612       2.86566991       0.00000000 NULL
Si       3.31297987       2.82293007       3.74028069       0.00000000 NULL
3
Lattice="2.33435 0.0 0.0 -0.9854322963994118 4.900839145912972 0.0 -0.5176626794144955 -0.49418285572822584 5.238609806842432" Properties=species:S:1:pos:R:3:initial_magmoms:R:1:castep_labels:S:1 pbc="T T T"
Si       1.69368874       1.27879678       0.84689671       0.00000000 NULL
Si       0.11968609       1.06396532       4.16038185       0.00000000 NULL
Si       1.28742268       2.03017120       4.03955750       0.00000000 NULL
10
Lattice="4.91126 0.0 0.0 0.0 7.0245 0.0 0.0 -3.512249999999998 6.08339544888379" Properties=species:S:1:pos:R:3:initial_magmoms:R:1:castep_labels:S:1 pbc="T T T"
Si       1.32427460      -0.11708120       5.17711979       0.00000000 NULL
Si       1.32427460       1.02980786       3.59623085       0.00000000 NULL
Si       1.32427460      -0.91272665       3.39344026       0.00000000 NULL
Si       4.48186068       0.75391500       4.57187730       0.00000000 NULL
Si       4.48186068       0.07015368       3.14454726       0.00000000 NULL
Si       4.48186068      -0.82406973       4.45036695       0.00000000 NULL
Si       2.85754051       1.21360917       3.32196644       0.00000000 NULL
Si       2.85754051      -1.24214655       3.37139586       0.00000000 NULL
Si       2.85754051       0.02853844       5.47342799       0.00000000 NULL
Si       0.07437514       3.51225035       2.02779828       0.00000000 NULL
9
Lattice="4.51876 0.0 0.0 0.0 6.94756 0.0 0.0 -3.4737799999999983 6.0167634543166155" Properties=species:S:1:pos:R:3:initial_magmoms:R:1:castep_labels:S:1 pbc="T T T"
Si       4.12054834       3.21850337       4.18942606       0.00000000 NULL
Si       2.61429516       5.49267771       1.13474474       0.00000000 NULL
Si       1.10804152       1.71015892       0.69259265       0.00000000 NULL
Si       1.55480274       1.28971794       4.97892591       0.00000000 NULL
Si       0.04854956       0.19323735       2.41037200       0.00000000 NULL
Si       3.06105637      -1.48295529       4.64422900       0.00000000 NULL
Si       2.76046801       1.23758276       1.37836349       0.00000000 NULL
Si       1.25421482       4.04868642       4.25580360       0.00000000 NULL
Si       4.26672119       5.13507082       0.38259636       0.00000000 NULL
11
Lattice="5.28429 0.0 0.0 -1.2698498253333492 5.61370841001747 0.0 -0.1264245251970893 -0.841841924327457 7.665817794434807" Properties=species:S:1:pos:R:3:initial_magmoms:R:1:castep_labels:S:1 pbc="T T T"
Si       0.50930814      -0.07076920       1.45315465       0.00000000 NULL
Si      -0.54735531       2.81586663       2.49597494       0.00000000 NULL
Si       4.38038711       1.96158398       6.20678959       0.00000000 NULL
Si       2.78606031       4.84544455       0.94200405       0.00000000 NULL
Si       1.56298744       1.96326482       0.41883422       0.00000000 NULL
Si      -0.84608241       3.91596027       3.60164267       0.00000000 NULL
Si       0.02879211       1.79173204       1.55547645       0.00000000 NULL
Si       2.07383968       2.56198550       5.72677985       0.00000000 NULL
Si       0.22758541       4.40518900       1.18935010       0.00000000 NULL
Si       1.60799598       3.89125953       0.84691342       0.00000000 NULL
Si       0.61594654       0.98390048       3.59720263       0.00000000 NULL
3
Lattice="2.77719 0.0 0.0 -1.243203324837645 4.834719174172646 0.0 -1.243203324837645 -0.38587527104058156 4.819295567643883" Properties=species:S:1:pos:R:3:initial_magmoms:R:1:castep_labels:S:1 pbc="T T T"
Si       0.77214220       1.08336081       4.44559438       0.00000000 NULL
Si       0.77214220       4.34494546       1.43472260       0.00000000 NULL
Si      -1.76322365       4.09583481       4.43689169       0.00000000 NULL
6
Lattice="4.33583 0.0 0.0 -2.1679149999999985 3.7549389264906825 0.0 0.0 0.0 8.00223" Properties=species:S:1:pos:R:3:initial_magmoms:R:1:castep_labels:S:1 pbc="T T T"
Si      -1.49809669       3.09342645       5.65357309       0.00000000 NULL
Si       0.23797723       0.91083629       0.31875283       0.00000000 NULL
Si       1.26011880       3.50561549       2.98616256       0.00000000 NULL
Si      -0.22597847       2.79107201       1.09980729       0.00000000 NULL
Si      -0.13623481       2.16369945       3.76721702       0.00000000 NULL
Si       0.36221394       2.55510602       6.43462755       0.00000000 NULL
6
Lattice="2.29489 0.0 0.0 0.0 6.25933 0.0 0.0 0.0 8.87831" Properties=species:S:1:pos:R:3:initial_magmoms:R:1:castep_labels:S:1 pbc="T T T"
Si       1.86830437       5.77036053       2.50661859       0.00000000 NULL
Si       0.42658563       5.77036053       6.37169141       0.00000000 NULL
Si       1.57403063       2.64069553       6.94577359       0.00000000 NULL
Si       0.72085937       2.64069553       1.93253641       0.00000000 NULL
Si       0.00000000       0.13940592       0.00000000       0.00000000 NULL
Si       1.14744500       3.26907092       4.43915500       0.00000000 NULL
4
Lattice="3.70984 0.0 0.0 -0.14284418568562465 3.7070889339501707 0.0 -0.7096576473518561 -0.7375293239296513 5.913256117597046" Properties=species:S:1:pos:R:3:initial_magmoms:R:1:castep_labels:S:1 pbc="T T T"
Si       1.28890393       0.07886414       0.94254405       0.00000000 NULL
Si       3.18298946       2.04733955       2.01408401       0.00000000 NULL
Si       1.56843424       2.89069547       4.97071207       0.00000000 NULL
Si      -0.32565130       0.92222006       3.89917211       0.00000000 NULL
4
Lattice="4.65487 0.0 0.0 1.7727085648754697 4.304104908214616 0.0 1.7727085648754697 1.1870603459613136 4.137173769128311" Properties=species:S:1:pos:R:3:initial_magmoms:R:1:castep_labels:S:1 pbc="T T T"
Si       4.88500238       4.10607113       0.35453676       0.00000000 NULL
Si       5.65701007       1.15526686       2.74086852       0.00000000 NULL
Si       3.22256475       3.95584756       3.84904030       0.00000000 NULL
Si       4.64000045       3.10708745       2.34095317       0.00000000 NULL
4
Lattice="2.56594 0.0 0.0 0.0 6.16945 0.0 0.0 -3.0847249999999984 5.342900427377907" Properties=species:S:1:pos:R:3:initial_magmoms:R:1:castep_labels:S:1 pbc="T T T"
Si       0.44330873       1.90509408       4.39515538       0.00000000 NULL
Si       0.44330873      -0.23095583       1.49546287       0.00000000 NULL
Si       0.44330873      -1.67413825       4.79518261       0.00000000 NULL
Si       1.18406379      -0.00000031       3.56193380       0.00000000 NULL
8
Lattice="4.85412 0.0 0.0 -0.8681932069437859 5.839968131583994 0.0 0.0 0.0 5.93892" Properties=species:S:1:pos:R:3:initial_magmoms:R:1:castep_labels:S:1 pbc="T T T"
Si      -0.07619358       0.78778484       5.11443696       0.00000000 NULL
Si       4.06212038       5.05218329       5.11443696       0.00000000 NULL
Si       3.85991141       2.39417845       2.31646803       0.00000000 NULL
Si       0.12601539       3.44578968       2.31646803       0.00000000 NULL
Si       2.69710536       3.20840608       2.80978620       0.00000000 NULL
Si       1.28882143       2.63156206       2.80978620       0.00000000 NULL
Si       3.07947258       0.41354625       2.47080927       0.00000000 NULL
Si       0.90645421       5.42642188       2.47080927       0.00000000 NULL
7
Lattice="3.34156 0.0 0.0 0.0 3.50092 0.0 0.0 -1.2818522051985344 13.055391188046707" Properties=species:S:1:pos:R:3:initial_magmoms:R:1:castep_labels:S:1 pbc="T T T"
Si       0.90105901      -0.49826865       9.45542843       0.00000000 NULL
Si       2.44050099      -0.49826865       9.45542843       0.00000000 NULL
Si       0.77156654      -0.59362020       6.70970864       0.00000000 NULL
Si       2.56999346      -0.59362020       6.70970864       0.00000000 NULL
Si       2.49688080       0.86268099       6.32284998       0.00000000 NULL
Si       0.84467920       0.86268099       6.32284998       0.00000000 NULL
Si       0.00000000       0.78349584       8.13296822       0.00000000 NULL
3
Lattice="2.54351 0.0 0.0 0.0 3.32972 0.0 -0.17524087453683598 0.0 7.2637264225390235" Properties=species:S:1:pos:R:3:initial_magmoms:R:1:castep_labels:S:1 pbc="T T T"
Si       0.08633800       2.47686317       0.84554279       0.00000000 NULL
Si       0.08633800       0.85285683       0.84554279       0.00000000 NULL
Si       1.84993116       1.66486000       1.96198117       0.00000000 NULL
1
Lattice="1.51031 0.0 0.0 0.0 3.20904 0.0 -0.6914141919711171 0.0 4.231109486652517" Properties=species:S:1:pos:R:3:initial_magmoms:R:1:castep_labels:S:1 pbc="T T T"
Si      -0.34570710       0.87706978       2.11555474       0.00000000 NULL
10