ITEM: TIMESTEP
1300
ITEM: NUMBER OF ATOMS
512
ITEM: BOX BOUNDS pp pp pp
0.0000000000000000e+00 1.7235477520000000e+01
0.0000000000000000e+00 1.7235477520000000e+01
0.0000000000000000e+00 1.7235477520000000e+01
ITEM: ATOMS id type xs ys zs
321 1 0.886076 0.0971894 0.0309971
187 1 0.984212 0.195975 0.131753
47 1 0.29468 0.0448317 0.178947
350 1 0.904553 0.0926032 0.112207
163 1 0.355931 0.458719 0.161893
151 1 0.304948 0.226435 0.0582558
211 1 0.0846907 0.229349 0.148576
77 1 0.960832 0.375552 0.0996413
22 1 0.649712 0.416666 0.137876
319 1 0.159182 0.140205 0.0212879
158 1 0.572942 0.324274 0.108811
392 1 0.956007 0.479664 0.0994013
3 1 0.797574 0.0903556 0.1705
193 1 0.0376639 0.180105 0.0879427
192 1 0.88692 0.144862 0.18093
301 1 0.417411 0.125545 0.0476051
490 1 0.368635 0.26185 0.0505768
197 1 0.612315 0.0313754 0.0491508
96 1 0.574386 0.24 0.116085
474 1 0.231823 0.362274 0.00292839
464 1 0.504231 0.22125 0.156397
376 1 0.0344319 0.489786 0.0563271
407 1 0.307174 0.358867 0.108319
209 1 0.491962 0.359658 0.105196
353 1 0.11094 0.381037 0.10658
424 1 0.213419 0.121546 0.133848
188 1 0.723797 0.172002 0.172615
283 1 0.96644 0.0217098 0.157715
244 1 0.112006 0.076627 0.180114
133 1 0.63729 0.165907 0.116458
497 1 0.0859591 0.32189 0.17669
309 1 0.897042 0.438959 0.174204
61 1 0.721242 0.474427 0.0207899
251 1 0.137687 0.452996 0.109501
365 1 0.0320393 0.347885 0.0674916
255 1 0.28759 0.428683 0.0878142
378 1 0.207206 0.486331 0.116212
87 1 0.796919 0.351613 0.0593635
286 1 0.166488 0.231604 0.138599
70 1 0.420062 0.183852 0.0957461
81 1 0.587958 0.425914 0.0254549
363 1 0.821703 0.410452 0.122014
166 1 0.175164 0.0701616 0.0671343
339 1 0.429487 0.418289 0.162879
427 1 0.221583 0.199402 0.0858685
371 1 0.735404 0.434936 0.0954941
101 1 0.609116 0.379026 0.0717314
377 1 0.618783 0.0973786 0.0848277
341 1 0.737474 0.241085 0.197433
196 1 0.570975 0.231741 0.0256336
142 1 0.39541 0.0575785 0.119405
225 1 0.0854821 0.488244 0.190174
258 1 0.399931 0.151854 0.175398
512 1 0.799428 0.289735 0.0237863
23 1 0.804492 0.0202606 0.188959
444 1 0.427008 0.339498 0.191901
218 1 0.488467 0.000491088 0.0283549
311 1 0.727001 0.446797 0.385711
71 1 0.433649 0.374257 0.31455
272 1 0.181009 0.43332 0.313098
78 1 0.9147 0.37664 0.225053
435 1 0.421412 0.142846 0.280017
298 1 0.967531 0.466408 0.283514
324 1 0.72695 0.0048159 0.21926
418 1 0.902441 0.450973 0.325574
13 1 0.560666 0.407101 0.389495
488 1 0.658539 0.446657 0.23211
212 1 0.609456 0.461054 0.328289
400 1 0.0922515 0.352555 0.262878
277 1 0.948458 0.259203 0.368606
417 1 0.0731945 0.118727 0.236467
391 1 0.950505 0.0863077 0.360031
229 1 0.685395 0.0600324 0.299118
423 1 0.818077 0.263396 0.237515
42 1 0.829654 0.113114 0.334227
171 1 0.552652 0.118493 0.278184
333 1 0.832308 0.474099 0.330908
62 1 0.987463 0.0171537 0.27334
223 1 0.699008 0.401852 0.2907
405 1 0.997944 0.206654 0.281467
420 1 0.495923 0.392255 0.359892
271 1 0.9938 0.0734899 0.227037
264 1 0.262395 0.0534715 0.236047
116 1 0.348424 0.392361 0.284945
266 1 0.461613 0.288251 0.257746
26 1 0.495741 0.224408 0.241583
4 1 0.266921 0.37967 0.284478
24 1 0.759807 0.403882 0.32072
221 1 0.417683 0.0935146 0.220657
322 1 0.587482 0.0472592 0.322859
273 1 0.793781 0.310483 0.318108
481 1 0.934225 0.126168 0.244293
455 1 0.874986 0.312479 0.244353
164 1 0.584323 0.188327 0.27798
492 1 0.0135711 0.498806 0.218431
380 1 0.1505 0.426256 0.237278
281 1 0.298445 0.0900951 0.3631
207 1 0.910372 0.14801 0.31784
366 1 0.0631544 0.198509 0.250174
470 1 0.751487 0.119427 0.310929
232 1 0.125104 0.368478 0.356223
342 1 0.725372 0.26696 0.335638
352 1 0.659158 0.319085 0.329792
79 1 0.550573 0.00444888 0.390994
433 1 0.649459 0.25231 0.253662
473 1 0.306913 0.0127206 0.329827
381 1 0.143549 0.0126608 0.207268
194 1 0.198129 0.0774409 0.212321
386 1 0.950348 0.180306 0.448265
257 1 0.871673 0.0774878 0.461626
100 1 0.926612 0.106917 0.509015
11 1 0.159787 0.0562344 0.528837
67 1 0.526686 0.151608 0.44826
5 1 0.717223 0.149472 0.444233
86 1 0.0149567 0.240028 0.498347
91 1 0.0306369 0.324942 0.456448
65 1 0.241912 0.000360048 0.578685
438 1 0.612995 0.178146 0.442991
503 1 0.470234 0.183584 0.400389
213 1 0.305826 0.286104 0.46049
338 1 0.508396 0.0335898 0.550545
243 1 0.730411 0.251604 0.431664
19 1 0.266016 0.491361 0.464981
201 1 0.111757 0.31531 0.542578
235 1 0.29843 0.325773 0.571679
25 1 0.596047 0.049734 0.563073
302 1 0.797826 0.475196 0.489947
320 1 0.791656 0.12692 0.405627
498 1 0.866382 0.0924942 0.554905
109 1 0.120639 0.455582 0.47802
210 1 0.240643 0.0801807 0.522773
355 1 0.657781 0.301982 0.537359
411 1 0.248095 0.320387 0.504924
447 1 0.509571 0.471445 0.473196
89 1 0.265004 0.135113 0.444623
491 1 0.612249 0.252996 0.499144
219 1 0.392635 0.161167 0.536208
84 1 0.62491 0.45749 0.595868
462 1 0.431742 0.333619 0.51024
260 1 0.0182711 0.252122 0.589527
129 1 0.522793 0.0651921 0.450322
241 1 0.47068 0.384195 0.542348
328 1 0.458544 0.201626 0.476917
287 1 0.11931 0.395106 0.526445
231 1 0.784838 0.280515 0.484885
389 1 0.798314 0.358514 0.532056
323 1 0.748452 0.419521 0.502073
372 1 0.597226 0.412697 0.454414
14 1 0.353279 0.331176 0.508323
189 1 0.142871 0.12306 0.587992
34 1 0.672647 0.429611 0.491768
508 1 0.542599 0.403486 0.537327
506 1 0.202416 0.497862 0.5107
351 1 0.0432499 0.48668 0.501963
360 1 0.0711456 0.216116 0.545694
267 1 0.21841 0.0584446 0.439742
220 1 0.69926 0.495926 0.538668
484 1 0.9646 0.476878 0.512422
51 1 0.862074 0.00683115 0.453843
336 1 0.440804 0.146929 0.596508
297 1 0.134593 0.303622 0.412126
307 1 0.32447 0.146125 0.412417
269 1 0.0582156 0.0107774 0.679645
278 1 0.809084 0.0192703 0.710897
489 1 0.15543 0.365723 0.711639
190 1 0.986609 0.268432 0.735593
293 1 0.341336 0.0849916 0.722607
147 1 0.358617 0.49224 0.666359
345 1 0.980287 0.353255 0.734639
140 1 0.126977 0.369913 0.634242
173 1 0.26733 0.326715 0.643596
450 1 0.733191 0.35156 0.669527
80 1 0.644702 0.407707 0.721557
425 1 0.905454 0.116755 0.609992
41 1 0.47447 0.204656 0.674522
446 1 0.666447 0.468333 0.786925
216 1 0.28796 0.289126 0.707798
43 1 0.478534 0.281376 0.682135
139 1 0.00153837 0.379628 0.665765
453 1 0.790267 0.274149 0.668865
357 1 0.203454 0.0665231 0.654369
177 1 0.786317 0.331149 0.61081
88 1 0.265018 0.364509 0.726612
248 1 0.0201115 0.0549787 0.729312
276 1 0.644991 0.322349 0.794498
300 1 0.116282 0.0723741 0.708263
130 1 0.473042 0.418436 0.769153
64 1 0.497634 0.345123 0.72226
295 1 0.873735 0.164176 0.698672
254 1 0.109829 0.444003 0.709992
429 1 0.73356 0.0572726 0.765034
483 1 0.175745 0.298142 0.61974
312 1 0.389665 0.00510487 0.635367
477 1 0.189883 0.491116 0.699437
102 1 0.441914 0.490246 0.713848
131 1 0.473222 0.11069 0.648476
56 1 0.326371 0.125927 0.788695
146 1 0.0846834 0.165615 0.701931
215 1 0.482909 0.0318182 0.662392
349 1 0.963771 0.437469 0.644978
370 1 0.362789 0.115628 0.652842
280 1 0.672498 0.0779669 0.782568
393 1 0.291527 0.307714 0.778035
245 1 0.783385 0.35281 0.745305
110 1 0.789705 0.195103 0.707231
373 1 0.815286 0.408119 0.794599
74 1 0.603768 0.111695 0.763004
431 1 0.0316298 0.213641 0.676404
112 1 0.690608 0.423965 0.635907
296 1 0.948326 0.315921 0.794216
396 1 0.92019 0.135835 0.75201
208 1 0.971767 0.0784133 0.777355
494 1 0.24412 0.438644 0.776664
299 1 0.543817 0.0841637 0.842879
170 1 0.128331 0.40125 0.938814
275 1 0.892822 0.393618 0.906597
49 1 0.51484 0.282065 0.97728
48 1 0.101204 0.109283 0.896782
467 1 0.0240781 0.47707 0.922508
314 1 0.138047 0.124164 0.842411
138 1 0.463504 0.215288 0.881732
382 1 0.604561 0.00760223 0.879325
233 1 0.472361 0.11736 0.846414
214 1 0.081984 0.4854 0.974223
54 1 0.426353 0.2767 0.994083
119 1 0.87114 0.287934 0.821295
469 1 0.184081 0.450262 0.907736
346 1 0.214105 0.310916 0.861046
466 1 0.865691 0.452753 0.95698
90 1 0.369241 0.418963 0.866006
159 1 0.349351 0.234721 0.888747
511 1 0.232246 0.244177 0.816372
238 1 0.248087 0.387479 0.850698
157 1 0.165781 0.330776 0.975129
263 1 0.0342818 0.109682 0.937911
135 1 0.717824 0.478816 0.928704
379 1 0.765885 0.295139 0.873554
416 1 0.326218 0.490282 0.927949
439 1 0.87981 0.135143 0.862517
261 1 0.922388 0.223553 0.881713
17 1 0.877886 0.146276 0.956808
430 1 0.494117 0.277843 0.887306
443 1 0.0553219 0.379759 0.887061
482 1 0.355501 0.0271027 0.925953
40 1 0.969486 0.373504 0.878751
121 1 0.834723 0.345653 0.859199
480 1 0.192867 0.160051 0.807804
340 1 0.557184 0.377009 0.930775
415 1 0.554363 0.0607299 0.926527
343 1 0.297822 0.382432 0.945127
172 1 0.356061 0.143758 0.879025
468 1 0.410466 0.0838088 0.906785
459 1 0.15086 0.0471757 0.800435
217 1 0.521128 0.446925 0.897605
124 1 0.771667 0.281869 0.952638
403 1 0.987016 0.0786154 0.88023
44 1 0.107802 0.165501 0.981297
451 1 0.580684 0.253902 0.825194
85 1 0.923051 0.226005 0.966865
152 1 0.808305 0.125005 0.830253
383 1 0.475935 0.421263 0.847475
160 1 0.470953 0.0758951 0.990898
504 1 0.952505 0.156963 0.979344
445 1 0.645265 0.471889 0.979186
315 1 0.726532 0.304312 0.803803
117 1 0.401648 0.151821 0.820025
82 1 0.189835 0.647446 0.039231
289 1 0.947091 0.514957 0.164258
7 1 0.997705 0.727948 0.0754014
8 1 0.607001 0.51141 0.036099
150 1 0.490006 0.513843 0.0268799
75 1 0.222047 0.909656 0.133039
402 1 0.791796 0.590245 0.119407
362 1 0.817688 0.699106 0.138818
247 1 0.48141 0.682101 0.151767
132 1 0.81983 0.5263 0.00559672
179 1 0.846683 0.541767 0.0871886
426 1 0.613156 0.726657 0.189257
390 1 0.507543 0.605174 0.0381328
234 1 0.335869 0.577961 0.141186
249 1 0.0377073 0.594382 0.0645754
262 1 0.233442 0.835686 0.146566
306 1 0.156889 0.955893 0.121593
94 1 0.640141 0.619046 0.0459412
134 1 0.372376 0.624537 0.0832327
125 1 0.460372 0.837867 0.112871
440 1 0.433508 0.650766 0.0569169
118 1 0.702543 0.616652 0.112196
452 1 0.577204 0.977371 0.159014
107 1 0.560509 0.714875 0.130038
375 1 0.495724 0.774405 0.128924
33 1 0.6829 0.669335 0.181166
479 1 0.526852 0.538673 0.0770086
265 1 0.351686 0.996263 0.142391
326 1 0.95272 0.762171 0.120401
161 1 0.382852 0.937151 0.194221
334 1 0.116553 0.89738 0.065979
282 1 0.815737 0.705711 0.0655356
83 1 0.981502 0.644642 0.065302
406 1 0.392467 0.530364 0.174593
485 1 0.954851 0.57644 0.102544
325 1 0.884537 0.979339 0.0105967
294 1 0.0507447 0.810235 0.194152
475 1 0.904081 0.601973 0.0269123
359 1 0.274833 0.625383 0.0535673
98 1 0.096985 0.826812 0.103318
434 1 0.166331 0.536828 0.175791
58 1 0.539134 0.988688 0.104922
9 1 0.166765 0.663626 0.173764
385 1 0.447732 0.87936 0.172071
46 1 0.872638 0.751547 0.163947
288 1 0.663667 0.96997 0.180284
20 1 0.638192 0.799268 0.196347
168 1 0.169896 0.750173 0.258399
68 1 0.630643 0.534248 0.256468
246 1 0.679605 0.84991 0.22488
313 1 0.0528991 0.679453 0.308748
181 1 0.487683 0.555378 0.204453
72 1 0.936088 0.651304 0.255189
108 1 0.214854 0.502365 0.351661
60 1 0.539668 0.76226 0.276552
28 1 0.458589 0.623331 0.389592
180 1 0.723844 0.956439 0.293141
441 1 0.901872 0.811885 0.220572
126 1 0.88274 0.579036 0.24087
31 1 0.745733 0.964816 0.362045
104 1 0.548757 0.523342 0.226778
394 1 0.205402 0.861729 0.261061
95 1 0.823205 0.540911 0.23502
167 1 0.455886 0.815956 0.374185
204 1 0.893337 0.704717 0.303168
361 1 0.133157 0.68209 0.266604
330 1 0.271286 0.883893 0.288015
230 1 0.305865 0.711189 0.379468
292 1 0.365484 0.816579 0.346034
50 1 0.294819 0.79914 0.389976
408 1 0.458197 0.912877 0.244495
270 1 0.225947 0.782108 0.210516
463 1 0.791557 0.763466 0.39663
186 1 0.0367791 0.817126 0.276847
76 1 0.278151 0.940471 0.347688
507 1 0.643531 0.531732 0.367789
144 1 0.691366 0.674011 0.386177
123 1 0.715163 0.655165 0.253101
476 1 0.0723963 0.759667 0.31993
127 1 0.835545 0.704873 0.375182
290 1 0.657827 0.930768 0.249372
448 1 0.514581 0.772392 0.347364
317 1 0.707137 0.574804 0.325867
59 1 0.249834 0.539728 0.290726
454 1 0.979543 0.916325 0.387482
92 1 0.554334 0.893016 0.290834
1 1 0.804264 0.636412 0.230049
37 1 0.550642 0.91571 0.378001
388 1 0.264655 0.640754 0.368163
18 1 0.0598419 0.65091 0.387259
404 1 0.244679 0.579137 0.201154
409 1 0.951 0.994536 0.341249
165 1 0.883396 0.50287 0.5306
15 1 0.111379 0.931727 0.499533
240 1 0.328415 0.991812 0.557258
21 1 0.771517 0.630555 0.556124
27 1 0.0980233 0.549983 0.541838
252 1 0.102469 0.989723 0.545781
472 1 0.274445 0.530259 0.401308
510 1 0.177272 0.650394 0.476165
2 1 0.861985 0.959357 0.510531
285 1 0.769349 0.906622 0.400694
224 1 0.581338 0.602187 0.466894
460 1 0.645126 0.633396 0.423766
279 1 0.400569 0.67405 0.422395
198 1 0.0880397 0.765706 0.416936
105 1 0.523728 0.881337 0.44421
16 1 0.850385 0.926379 0.438333
176 1 0.392481 0.835494 0.425366
367 1 0.373791 0.923037 0.521418
496 1 0.967668 0.867967 0.566653
268 1 0.873775 0.784167 0.468295
499 1 0.102606 0.858741 0.442386
398 1 0.158958 0.653931 0.545947
369 1 0.526782 0.543788 0.461932
329 1 0.393383 0.685578 0.496681
305 1 0.912007 0.688072 0.422083
368 1 0.629151 0.883561 0.52879
308 1 0.557202 0.843835 0.510217
228 1 0.421026 0.751302 0.517035
344 1 0.87624 0.866401 0.49402
456 1 0.767117 0.913022 0.56348
318 1 0.839051 0.728839 0.521282
200 1 0.500716 0.844675 0.576609
259 1 0.770288 0.81101 0.442304
97 1 0.0340636 0.867096 0.504927
63 1 0.0786174 0.625477 0.539938
495 1 0.183981 0.830788 0.432476
52 1 0.841132 0.641591 0.536857
348 1 0.781566 0.800153 0.535437
419 1 0.251022 0.869627 0.415951
428 1 0.00968173 0.64083 0.438878
502 1 0.0556104 0.825058 0.595823
337 1 0.435056 0.888772 0.554291
199 1 0.218609 0.973958 0.41923
184 1 0.0396161 0.713085 0.561685
422 1 0.704472 0.885405 0.578303
53 1 0.179521 0.749892 0.420078
10 1 0.204413 0.569377 0.563339
12 1 0.435033 0.998877 0.556846
256 1 0.991967 0.647879 0.526174
284 1 0.0588059 0.54676 0.630947
358 1 0.112956 0.614482 0.771723
509 1 0.76508 0.594891 0.730385
253 1 0.097146 0.869803 0.658081
303 1 0.86914 0.647044 0.665557
114 1 0.304504 0.513987 0.787759
45 1 0.216773 0.571258 0.652276
335 1 0.375939 0.643921 0.758871
310 1 0.437809 0.915932 0.734306
501 1 0.711557 0.670151 0.600759
191 1 0.802781 0.678289 0.66998
195 1 0.427979 0.733503 0.754784
128 1 0.956901 0.836481 0.652871
69 1 0.498211 0.95246 0.702941
449 1 0.439318 0.62407 0.645119
73 1 0.546967 0.841705 0.746186
38 1 0.508646 0.762207 0.602421
399 1 0.526844 0.705734 0.664548
226 1 0.942735 0.853009 0.716831
120 1 0.300897 0.962405 0.709053
505 1 0.185277 0.703645 0.6067
113 1 0.0931776 0.535717 0.705569
155 1 0.0588651 0.731427 0.6363
183 1 0.665587 0.928326 0.783268
413 1 0.292203 0.631373 0.773322
174 1 0.148508 0.667909 0.73472
205 1 0.365852 0.936565 0.698867
250 1 0.487644 0.767753 0.72652
29 1 0.946085 0.853263 0.78542
432 1 0.633504 0.828768 0.775461
202 1 0.688729 0.967024 0.707792
354 1 0.42367 0.537029 0.627733
316 1 0.287817 0.521624 0.698205
414 1 0.7468 0.802911 0.616601
141 1 0.151212 0.734427 0.669077
239 1 0.656157 0.655828 0.665474
397 1 0.583927 0.629508 0.641712
458 1 0.221375 0.635207 0.703547
478 1 0.24186 0.988409 0.679307
236 1 0.447285 0.597449 0.726181
457 1 0.722764 0.533036 0.758393
291 1 0.518932 0.910541 0.759541
421 1 0.0798433 0.945586 0.646271
35 1 0.909933 0.709132 0.788122
32 1 0.728346 0.619472 0.798185
162 1 0.990543 0.502842 0.625533
387 1 0.997311 0.671662 0.795969
384 1 0.902158 0.550761 0.600993
356 1 0.922847 0.630133 0.600849
274 1 0.717503 0.837643 0.888225
461 1 0.634804 0.64789 0.842081
182 1 0.201081 0.946828 0.880335
66 1 0.80262 0.949283 0.839553
437 1 0.4869 0.899623 0.955108
332 1 0.631002 0.825726 0.887157
410 1 0.37504 0.542544 0.96634
401 1 0.255121 0.564986 0.817091
55 1 0.303899 0.592635 0.991931
412 1 0.786499 0.83352 0.831505
122 1 0.891017 0.733642 0.868496
185 1 0.597046 0.95906 0.824571
175 1 0.303649 0.832751 0.897008
487 1 0.823161 0.972225 0.982561
327 1 0.937439 0.522335 0.893017
93 1 0.87311 0.549475 0.944491
103 1 0.866862 0.830287 0.902657
486 1 0.651662 0.656329 0.942425
30 1 0.948385 0.953008 0.999046
374 1 0.66374 0.711794 0.866495
471 1 0.956173 0.85172 0.869884
6 1 0.568527 0.597951 0.880457
242 1 0.690747 0.508188 0.848688
436 1 0.0874443 0.635504 0.909694
493 1 0.121944 0.543171 0.942934
203 1 0.25449 0.577382 0.917753
347 1 0.279673 0.744671 0.80427
395 1 0.375481 0.734096 0.810533
364 1 0.395912 0.728231 0.883057
153 1 0.762836 0.556746 0.939413
156 1 0.741231 0.742415 0.866957
331 1 0.488977 0.809973 0.988524
222 1 0.039956 0.553707 0.882091
57 1 0.454067 0.780004 0.919555
465 1 0.549146 0.519477 0.887221
137 1 0.675156 0.985132 0.926066
111 1 0.832994 0.716148 0.918931
227 1 0.999043 0.924781 0.895213
304 1 0.516236 0.882664 0.881118
39 1 0.296624 0.826721 0.815033
143 1 0.72476 0.630129 0.956251
237 1 0.0636838 0.931037 0.828676
115 1 0.328545 0.963157 0.900526
206 1 0.127197 0.986852 0.840028
136 1 0.221446 0.515063 0.947224
442 1 0.210787 0.902483 0.937369
154 1 0.782779 0.693894 0.989554
500 1 0.852369 0.947083 0.900255
36 1 0.750481 0.90445 0.801249
99 1 0.0731247 0.654327 0.825334
178 1 0.0157054 0.941222 0.973172
169 1 0.316999 0.895508 0.948738
149 1 0.166849 0.629447 0.967191
145 1 0.147736 0.910132 0.991313
106 1 0.753402 0.90613 0.971919
148 1 0.703307 0.9736 0.995307
