ITEM: TIMESTEP
1600
ITEM: NUMBER OF ATOMS
512
ITEM: BOX BOUNDS pp pp pp
0.0000000000000000e+00 1.7235477520000000e+01
0.0000000000000000e+00 1.7235477520000000e+01
0.0000000000000000e+00 1.7235477520000000e+01
ITEM: ATOMS id type xs ys zs
441 1 0.799997 0.147297 0.0495554
187 1 0.00496954 0.181156 0.125563
94 1 0.678188 0.40936 0.0693516
350 1 0.0238856 0.243955 0.184943
218 1 0.567376 0.094544 0.0399199
151 1 0.391566 0.219275 0.107835
93 1 0.95231 0.427377 0.0433293
77 1 0.965337 0.342966 0.0394373
22 1 0.722064 0.358205 0.18017
319 1 0.344786 0.0445849 0.12861
249 1 0.0257412 0.384839 0.0676151
392 1 0.124645 0.429107 0.181929
62 1 0.924539 0.0535384 0.156218
193 1 0.212494 0.232187 0.0303035
192 1 0.796248 0.146952 0.13199
283 1 0.854716 0.0182603 0.127725
490 1 0.456493 0.232777 0.0956645
197 1 0.606066 0.182684 0.0278817
96 1 0.598501 0.278384 0.124632
58 1 0.576093 0.0648809 0.122548
255 1 0.528664 0.421777 0.112439
512 1 0.895752 0.288736 0.0227493
407 1 0.358808 0.46716 0.0901038
443 1 0.259176 0.273392 0.0693139
353 1 0.277322 0.295353 0.14785
118 1 0.661183 0.354006 0.126677
474 1 0.366131 0.373627 0.0960119
468 1 0.501385 0.0402055 0.15323
54 1 0.506077 0.188281 0.038554
133 1 0.745566 0.213777 0.134319
196 1 0.500893 0.311126 0.11639
309 1 0.883185 0.437004 0.101142
410 1 0.4551 0.467603 0.0773524
232 1 0.215393 0.419606 0.138644
365 1 0.0843423 0.382176 0.113564
8 1 0.609605 0.444797 0.0245724
85 1 0.923896 0.197109 0.0637191
87 1 0.771104 0.273151 0.192377
400 1 0.0875655 0.312558 0.167148
40 1 0.147687 0.444817 0.0731854
380 1 0.292512 0.446039 0.128371
363 1 0.806559 0.437866 0.124251
158 1 0.488169 0.373622 0.16996
286 1 0.322003 0.206997 0.143955
427 1 0.346967 0.125886 0.120288
371 1 0.725476 0.47754 0.10564
170 1 0.235171 0.354447 0.192955
377 1 0.637768 0.247854 0.067047
142 1 0.414162 0.0830359 0.187893
160 1 0.497233 0.0372354 0.00819224
339 1 0.507658 0.495267 0.139597
17 1 0.96257 0.170437 0.0126071
214 1 0.337119 0.370458 0.00266006
108 1 0.426694 0.467778 0.319427
70 1 0.431766 0.170313 0.30602
258 1 0.411506 0.099641 0.269275
163 1 0.467363 0.336314 0.245857
435 1 0.300017 0.0947953 0.346533
281 1 0.255015 0.13678 0.39557
271 1 0.953737 0.267748 0.224863
16 1 0.817539 0.0279867 0.334845
352 1 0.600164 0.477814 0.253462
454 1 0.879299 0.0538812 0.285137
188 1 0.656103 0.163974 0.296378
333 1 0.929338 0.258065 0.36676
277 1 0.0254624 0.177689 0.380305
417 1 0.939664 0.0779732 0.230188
391 1 0.848954 0.109596 0.331162
101 1 0.700989 0.364092 0.264471
211 1 0.149954 0.29667 0.219509
68 1 0.556364 0.438565 0.385554
109 1 0.0361098 0.406416 0.376342
433 1 0.62138 0.331886 0.318118
325 1 0.156681 0.0604053 0.277802
223 1 0.681398 0.437638 0.263046
405 1 0.0892824 0.110219 0.289989
464 1 0.499036 0.19451 0.313157
5 1 0.797467 0.228938 0.354894
503 1 0.681515 0.132745 0.386392
116 1 0.459543 0.319391 0.38386
266 1 0.469539 0.274569 0.305838
26 1 0.55774 0.2336 0.385793
4 1 0.48436 0.401605 0.348564
341 1 0.677209 0.127329 0.228118
221 1 0.352555 0.04297 0.384078
334 1 0.248853 0.0660607 0.28833
51 1 0.768869 0.00390679 0.394172
481 1 0.902331 0.238599 0.266115
342 1 0.562263 0.386168 0.287879
164 1 0.620154 0.291276 0.382687
497 1 0.211021 0.309134 0.265581
366 1 0.0182066 0.0641499 0.266783
89 1 0.0214008 0.144665 0.309803
207 1 0.835904 0.193398 0.293558
126 1 0.0867698 0.497368 0.202696
418 1 0.0190873 0.265633 0.352871
166 1 0.282806 0.0183903 0.243213
273 1 0.839045 0.37098 0.379929
351 1 0.0538266 0.490029 0.37322
42 1 0.833157 0.149351 0.389978
86 1 0.0227751 0.326894 0.396894
386 1 0.0306149 0.129177 0.443972
252 1 0.97358 0.193879 0.546407
302 1 0.852973 0.419541 0.552903
11 1 0.0972474 0.0825717 0.459733
67 1 0.353905 0.214571 0.515657
322 1 0.612864 0.178304 0.415352
393 1 0.227404 0.252413 0.494781
508 1 0.36807 0.495985 0.552653
37 1 0.399548 0.08783 0.440911
10 1 0.0694483 0.473101 0.553058
24 1 0.864599 0.196156 0.568138
213 1 0.393439 0.171093 0.47553
60 1 0.467688 0.0440533 0.474282
243 1 0.751792 0.209477 0.479133
257 1 0.737453 0.0834977 0.429295
71 1 0.500946 0.268167 0.431132
235 1 0.3086 0.372713 0.467635
79 1 0.593355 0.145363 0.488039
483 1 0.154272 0.219181 0.58498
171 1 0.802354 0.14589 0.476083
420 1 0.492035 0.312542 0.497573
173 1 0.146844 0.259146 0.448926
488 1 0.576088 0.296924 0.543227
355 1 0.711689 0.362756 0.48077
411 1 0.270723 0.318102 0.452471
320 1 0.854497 0.288287 0.40602
91 1 0.849414 0.440507 0.416504
506 1 0.150102 0.496476 0.515579
311 1 0.77 0.402253 0.508376
139 1 0.784906 0.425144 0.594575
462 1 0.445193 0.374203 0.50139
357 1 0.0983181 0.0861874 0.557995
129 1 0.541135 0.0930752 0.495941
241 1 0.443372 0.466421 0.50785
328 1 0.300018 0.242889 0.552234
287 1 0.0672972 0.263517 0.485267
165 1 0.866467 0.465274 0.489883
13 1 0.561741 0.360027 0.581425
307 1 0.22462 0.200627 0.425811
372 1 0.687666 0.212058 0.525281
14 1 0.335882 0.434267 0.494575
423 1 0.770793 0.392405 0.419595
34 1 0.639004 0.299234 0.481521
368 1 0.656704 0.0429176 0.571364
100 1 0.969434 0.324115 0.598604
201 1 0.108613 0.288177 0.596516
269 1 0.956135 0.0738664 0.595868
470 1 0.72753 0.217721 0.401544
467 1 0.922695 0.480132 0.790109
231 1 0.789889 0.149038 0.699598
220 1 0.760486 0.476711 0.717653
113 1 0.161508 0.41279 0.660666
293 1 0.370269 0.196285 0.628965
121 1 0.0157962 0.329942 0.793494
491 1 0.483081 0.141156 0.666808
140 1 0.0626462 0.309696 0.715951
110 1 0.0664813 0.181035 0.766731
450 1 0.649035 0.253377 0.78882
215 1 0.561081 0.0189917 0.69598
43 1 0.491998 0.153658 0.784593
41 1 0.224444 0.245918 0.687522
396 1 0.912751 0.377213 0.614604
216 1 0.262057 0.21383 0.619635
507 1 0.798333 0.410213 0.680196
425 1 0.865521 0.157529 0.635879
453 1 0.899011 0.4077 0.691213
44 1 0.128415 0.166679 0.733394
177 1 0.6578 0.169139 0.797114
88 1 0.278798 0.299568 0.700923
248 1 0.998722 0.195359 0.665726
498 1 0.858691 0.375029 0.765999
360 1 0.0941108 0.362374 0.641376
130 1 0.357015 0.310906 0.719598
389 1 0.695258 0.123993 0.714686
64 1 0.222197 0.370815 0.732833
438 1 0.488556 0.38429 0.637813
336 1 0.472547 0.209099 0.710219
112 1 0.402315 0.368682 0.642303
219 1 0.410162 0.250318 0.675561
56 1 0.196464 0.233381 0.762651
354 1 0.223968 0.447386 0.613311
233 1 0.568856 0.0904697 0.708021
316 1 0.37384 0.437857 0.679319
205 1 0.40045 0.0130809 0.636588
90 1 0.370936 0.465066 0.759619
147 1 0.341997 0.428181 0.615472
370 1 0.414893 0.0994629 0.647582
45 1 0.0266251 0.441979 0.618829
299 1 0.582358 0.124894 0.781924
15 1 0.999798 0.144789 0.607864
312 1 0.518055 0.0208691 0.616961
413 1 0.146172 0.490441 0.714642
74 1 0.647159 0.0841471 0.660577
431 1 0.998288 0.280708 0.675428
446 1 0.760322 0.361806 0.767187
152 1 0.804679 0.156767 0.799397
504 1 0.189927 0.224127 0.940133
465 1 0.456397 0.413444 0.899114
275 1 0.984002 0.370022 0.847036
222 1 0.132712 0.423094 0.949262
280 1 0.747838 0.184385 0.844484
115 1 0.393457 0.0800794 0.89467
409 1 0.0703016 0.0753884 0.856487
238 1 0.257212 0.380412 0.814714
296 1 0.0935944 0.216031 0.932417
445 1 0.771406 0.4421 0.957383
373 1 0.623565 0.367634 0.881223
482 1 0.267583 0.0290893 0.893983
169 1 0.206448 0.0145193 0.938145
114 1 0.239607 0.449033 0.836809
346 1 0.224622 0.258247 0.88177
306 1 0.12148 0.0264575 0.986956
208 1 0.877453 0.0100351 0.832812
159 1 0.457013 0.0864076 0.931999
511 1 0.239079 0.184104 0.804056
30 1 0.742632 0.109118 0.883404
157 1 0.237435 0.43532 0.917128
315 1 0.618141 0.285535 0.875684
131 1 0.5718 0.0338492 0.94287
379 1 0.788547 0.376356 0.974649
148 1 0.696534 0.072907 0.931249
217 1 0.42151 0.418419 0.821112
261 1 0.0195018 0.169839 0.94249
81 1 0.516433 0.380422 0.923415
430 1 0.482719 0.168981 0.957175
254 1 0.11304 0.459295 0.879117
276 1 0.595805 0.301896 0.956165
383 1 0.318943 0.496579 0.831954
178 1 0.777442 0.0397242 0.936201
327 1 0.961571 0.449718 0.866155
340 1 0.587856 0.381764 0.94591
415 1 0.630158 0.0567301 0.874263
314 1 0.000594748 0.197881 0.803072
494 1 0.200997 0.309096 0.804484
138 1 0.415937 0.334114 0.804675
117 1 0.429525 0.130409 0.818399
119 1 0.122868 0.122134 0.877161
245 1 0.70056 0.324335 0.802696
190 1 0.00183453 0.240698 0.873504
376 1 0.977913 0.497845 0.988646
451 1 0.527349 0.220418 0.956081
295 1 0.896465 0.326866 0.811479
321 1 0.838093 0.115009 0.988179
124 1 0.843703 0.323241 0.979427
23 1 0.756018 0.244157 0.950085
172 1 0.283252 0.356001 0.897517
49 1 0.331812 0.319509 0.943789
3 1 0.813353 0.26652 0.907506
242 1 0.764278 0.463335 0.807239
469 1 0.309946 0.484442 0.985693
80 1 0.386844 0.281099 0.849151
48 1 0.262452 0.0872607 0.806189
480 1 0.17117 0.127666 0.805539
324 1 0.688297 0.914223 0.196301
132 1 0.186375 0.65592 0.0311849
7 1 0.0704326 0.898866 0.166135
331 1 0.410798 0.730349 0.0822035
97 1 0.982536 0.808094 0.161831
168 1 0.155888 0.70094 0.11713
246 1 0.61917 0.759931 0.122416
290 1 0.54238 0.758217 0.138277
251 1 0.121769 0.53031 0.149822
264 1 0.287107 0.865581 0.182592
294 1 0.210476 0.861662 0.139444
288 1 0.823337 0.946039 0.123792
304 1 0.458701 0.91825 0.0493571
385 1 0.420886 0.849448 0.124373
313 1 0.0783576 0.740964 0.126205
262 1 0.154166 0.913893 0.146558
20 1 0.669196 0.744415 0.0598362
485 1 0.0221288 0.713384 0.0613135
301 1 0.479872 0.999958 0.0791064
125 1 0.475734 0.792423 0.0954666
440 1 0.23699 0.71643 0.157765
359 1 0.23651 0.730413 0.0727321
452 1 0.760416 0.92099 0.172097
434 1 0.0657721 0.587603 0.00114042
492 1 0.0196207 0.524966 0.128929
282 1 0.852695 0.615722 0.0116827
61 1 0.714444 0.565706 0.0745667
381 1 0.963137 0.934237 0.0314254
326 1 0.894643 0.807536 0.0545167
78 1 0.876183 0.585083 0.169973
75 1 0.359592 0.816046 0.166418
46 1 0.864684 0.880557 0.0693197
83 1 0.964608 0.765452 0.0894476
475 1 0.0359133 0.64229 0.0483536
416 1 0.464478 0.687093 0.137766
426 1 0.720364 0.687448 0.0497504
406 1 0.405514 0.579509 0.183919
244 1 0.0301254 0.956894 0.0597764
390 1 0.405145 0.651387 0.175938
444 1 0.574579 0.585754 0.129245
186 1 0.0688878 0.794626 0.19514
479 1 0.608778 0.543667 0.0625576
145 1 0.109134 0.978658 0.0498489
402 1 0.798751 0.672962 0.0688781
332 1 0.497203 0.764432 0.020501
194 1 0.985282 0.883928 0.110471
455 1 0.871745 0.500036 0.159117
298 1 0.96019 0.539743 0.172963
95 1 0.743672 0.640565 0.127431
104 1 0.464002 0.52223 0.19327
204 1 0.938111 0.70603 0.197996
161 1 0.241025 0.813932 0.0603105
437 1 0.369513 0.932548 0.0192578
225 1 0.144443 0.526598 0.0780823
134 1 0.310138 0.704191 0.199734
212 1 0.629549 0.549181 0.194225
47 1 0.306552 0.867709 0.000240999
378 1 0.153548 0.581589 0.00446714
285 1 0.664488 0.813911 0.289752
198 1 0.0360662 0.760233 0.262813
270 1 0.249104 0.753635 0.319519
189 1 0.339602 0.959959 0.388767
230 1 0.470302 0.660031 0.365377
72 1 0.990268 0.691289 0.249778
289 1 0.00417335 0.552588 0.257087
279 1 0.465876 0.532356 0.285201
260 1 0.159387 0.982975 0.379543
92 1 0.50351 0.817266 0.327711
234 1 0.336143 0.544182 0.247734
428 1 0.142313 0.732358 0.285684
31 1 0.595395 0.862283 0.279182
265 1 0.408677 0.813389 0.233566
394 1 0.243541 0.657256 0.303661
33 1 0.640545 0.62145 0.249177
1 1 0.773488 0.669264 0.203423
499 1 0.166686 0.756604 0.205607
361 1 0.11656 0.625057 0.299993
330 1 0.263214 0.821002 0.344713
362 1 0.845901 0.66637 0.221145
28 1 0.554951 0.539431 0.319084
63 1 0.212549 0.562968 0.399948
408 1 0.345361 0.866026 0.371377
18 1 0.090491 0.775283 0.347586
259 1 0.738 0.801331 0.326678
473 1 0.229056 0.949218 0.384856
199 1 0.130734 0.900552 0.356944
404 1 0.304509 0.628286 0.260235
272 1 0.35843 0.512494 0.331093
123 1 0.616387 0.609439 0.325822
476 1 0.0290743 0.632818 0.282941
127 1 0.6814 0.69637 0.221355
305 1 0.685882 0.745029 0.283693
180 1 0.413791 0.839184 0.318509
9 1 0.184536 0.569331 0.316252
256 1 0.0599761 0.634202 0.386424
388 1 0.411686 0.624164 0.369345
59 1 0.353945 0.578495 0.390373
76 1 0.187722 0.850598 0.38869
53 1 0.0543776 0.851207 0.35858
424 1 0.303341 0.942247 0.201469
229 1 0.596716 0.894666 0.210156
422 1 0.716095 0.9602 0.571303
210 1 0.214216 0.916107 0.533147
447 1 0.509587 0.501971 0.490378
21 1 0.723325 0.767683 0.494536
27 1 0.160428 0.556785 0.462149
463 1 0.523081 0.782223 0.531895
155 1 0.968585 0.79714 0.593759
510 1 0.0338616 0.838646 0.460184
65 1 0.199276 0.845943 0.48622
240 1 0.203402 0.771024 0.529395
224 1 0.576309 0.603384 0.442945
484 1 0.0812944 0.558845 0.413585
297 1 0.290794 0.552384 0.41063
329 1 0.660897 0.724467 0.458579
105 1 0.468025 0.955026 0.495886
162 1 0.812852 0.632906 0.573589
191 1 0.913411 0.602237 0.518162
209 1 0.552169 0.50249 0.407868
496 1 0.766696 0.91806 0.435983
268 1 0.84636 0.758432 0.525821
472 1 0.250316 0.579343 0.554834
398 1 0.0408819 0.746153 0.476095
369 1 0.557162 0.569458 0.51894
292 1 0.386319 0.775494 0.518399
128 1 0.921129 0.82576 0.529758
25 1 0.46487 0.935025 0.588359
308 1 0.534839 0.874248 0.561599
228 1 0.331987 0.562007 0.572745
421 1 0.00886478 0.99578 0.57194
448 1 0.533134 0.896573 0.467814
318 1 0.797661 0.767468 0.451912
167 1 0.526357 0.81812 0.409304
356 1 0.924742 0.534339 0.488466
253 1 0.951788 0.939804 0.575894
502 1 0.9647 0.885932 0.500142
495 1 0.201504 0.648446 0.57638
52 1 0.0198284 0.540916 0.485861
236 1 0.567858 0.739062 0.591646
419 1 0.168881 0.70759 0.502962
146 1 0.153045 0.972799 0.520433
19 1 0.207851 0.510324 0.57169
501 1 0.744495 0.8194 0.569465
12 1 0.393383 0.738481 0.596029
184 1 0.107985 0.707102 0.451202
141 1 0.01397 0.743086 0.562693
449 1 0.517643 0.668794 0.572891
144 1 0.568119 0.768839 0.460249
509 1 0.856553 0.682648 0.54658
2 1 0.752428 0.915526 0.513303
478 1 0.299341 0.910813 0.571377
50 1 0.361518 0.826943 0.436522
338 1 0.297136 0.800278 0.560117
300 1 0.100212 0.968179 0.580626
38 1 0.375828 0.631537 0.585516
176 1 0.245705 0.765676 0.591129
267 1 0.125104 0.996192 0.454912
317 1 0.630941 0.651902 0.400562
348 1 0.768428 0.840625 0.401588
120 1 0.329073 0.938753 0.636712
358 1 0.0477688 0.898239 0.689168
103 1 0.026049 0.833255 0.729475
401 1 0.379707 0.624764 0.788978
367 1 0.434076 0.671513 0.609617
206 1 0.166575 0.956137 0.705611
32 1 0.650386 0.728919 0.623489
397 1 0.598189 0.649416 0.680087
310 1 0.365453 0.904177 0.728053
175 1 0.413299 0.827682 0.709236
278 1 0.803541 0.934853 0.752093
195 1 0.319536 0.873375 0.784963
442 1 0.183531 0.9982 0.774137
69 1 0.485436 0.814654 0.727189
460 1 0.583944 0.987028 0.618047
73 1 0.609656 0.783413 0.776765
414 1 0.566609 0.900144 0.628797
399 1 0.597708 0.664217 0.760635
226 1 0.979317 0.834152 0.665408
135 1 0.834291 0.642601 0.769959
505 1 0.0459704 0.686759 0.620176
395 1 0.388706 0.700927 0.780131
456 1 0.837423 0.928094 0.667408
384 1 0.753877 0.599912 0.610852
84 1 0.704884 0.66047 0.639552
174 1 0.108544 0.633559 0.617072
149 1 0.00795206 0.558373 0.782452
250 1 0.532363 0.751427 0.796412
29 1 0.911941 0.869013 0.699128
436 1 0.067196 0.602688 0.787008
200 1 0.352601 0.761494 0.70203
185 1 0.57254 0.947848 0.752764
323 1 0.723088 0.54273 0.653281
345 1 0.987195 0.503899 0.662679
349 1 0.922339 0.559776 0.683588
459 1 0.101553 0.954267 0.671318
344 1 0.897216 0.923955 0.632367
458 1 0.125148 0.561095 0.654968
36 1 0.69161 0.792485 0.732003
284 1 0.889914 0.640483 0.713933
489 1 0.988009 0.500234 0.737228
291 1 0.558033 0.854672 0.73828
227 1 0.900155 0.877906 0.786121
239 1 0.689386 0.796773 0.657214
337 1 0.275468 0.739909 0.662267
35 1 0.0552044 0.770688 0.781964
382 1 0.648873 0.972098 0.792023
102 1 0.571205 0.597127 0.617363
6 1 0.569639 0.597397 0.791685
477 1 0.153527 0.501314 0.796913
412 1 0.657056 0.848414 0.88878
461 1 0.513242 0.546127 0.840648
500 1 0.87896 0.677711 0.83217
137 1 0.567552 0.875302 0.928428
99 1 0.0476079 0.67795 0.809268
439 1 0.843288 0.997876 0.894375
182 1 0.198753 0.973905 0.865017
98 1 0.194821 0.842123 0.849797
156 1 0.736306 0.721205 0.87546
153 1 0.773188 0.522162 0.936106
403 1 0.0829337 0.910825 0.900244
183 1 0.69687 0.778426 0.913938
375 1 0.678357 0.575875 0.874924
487 1 0.578487 0.942735 0.946456
471 1 0.931564 0.879023 0.84858
457 1 0.812502 0.509376 0.846635
82 1 0.381872 0.817463 0.875099
486 1 0.771789 0.569942 0.871498
136 1 0.347365 0.554844 0.872084
66 1 0.00623972 0.873155 0.896182
347 1 0.369331 0.939018 0.927243
39 1 0.348251 0.999004 0.893004
181 1 0.564182 0.601897 0.987703
202 1 0.707451 0.911522 0.853573
154 1 0.92571 0.64227 0.987744
203 1 0.432058 0.766948 0.819423
150 1 0.42831 0.581031 0.838074
122 1 0.92233 0.701147 0.895584
364 1 0.339214 0.848732 0.927785
432 1 0.569338 0.790177 0.975445
237 1 0.182261 0.893048 0.9027
143 1 0.787272 0.597475 0.965915
111 1 0.944841 0.559875 0.829992
57 1 0.426888 0.726936 0.980503
343 1 0.33952 0.547291 0.949259
274 1 0.640449 0.753749 0.972747
387 1 0.00548414 0.711342 0.887559
303 1 0.0388218 0.791557 0.857486
335 1 0.431332 0.656758 0.956469
263 1 0.109507 0.966835 0.842325
493 1 0.984619 0.591065 0.998749
107 1 0.637625 0.592771 0.945155
247 1 0.50021 0.618174 0.947398
106 1 0.504107 0.912388 0.972769
374 1 0.755087 0.660865 0.821241
466 1 0.962375 0.518785 0.910271
55 1 0.245147 0.692096 0.996971
179 1 0.705774 0.605858 0.998688
429 1 0.74957 0.944412 0.803924
