ITEM: TIMESTEP
1700
ITEM: NUMBER OF ATOMS
512
ITEM: BOX BOUNDS pp pp pp
0.0000000000000000e+00 1.7235477520000000e+01
0.0000000000000000e+00 1.7235477520000000e+01
0.0000000000000000e+00 1.7235477520000000e+01
ITEM: ATOMS id type xs ys zs
441 1 0.839751 0.152519 0.0249382
187 1 0.987524 0.193533 0.102171
94 1 0.667883 0.435863 0.0676762
350 1 0.983872 0.249222 0.17045
218 1 0.599059 0.0747109 0.0945052
151 1 0.432323 0.272243 0.0989079
93 1 0.947011 0.466075 0.0495197
8 1 0.598614 0.483723 0.0880262
17 1 0.0120277 0.165893 0.0350773
319 1 0.347682 0.130084 0.110717
249 1 0.992299 0.375827 0.0521016
392 1 0.11209 0.410682 0.133645
427 1 0.326114 0.185651 0.0679973
193 1 0.14822 0.257128 0.0327494
192 1 0.763573 0.16683 0.0859632
142 1 0.416962 0.106222 0.165963
490 1 0.519688 0.241994 0.0798136
197 1 0.624385 0.149031 0.0630081
96 1 0.640006 0.273423 0.131726
58 1 0.555738 0.0672161 0.160092
255 1 0.567017 0.422193 0.0660327
377 1 0.682577 0.20176 0.113639
407 1 0.405909 0.466628 0.107202
443 1 0.23585 0.287306 0.040857
353 1 0.308176 0.305706 0.021782
118 1 0.67782 0.351094 0.123624
474 1 0.372946 0.30544 0.122543
468 1 0.480882 0.0451879 0.155467
54 1 0.564748 0.19427 0.0296133
133 1 0.778933 0.206202 0.160008
196 1 0.559242 0.286006 0.134165
309 1 0.873416 0.494744 0.0805753
371 1 0.732488 0.474883 0.0791439
232 1 0.287427 0.400787 0.190581
365 1 0.03579 0.363414 0.12294
126 1 0.131024 0.467763 0.181304
286 1 0.366087 0.247091 0.054725
160 1 0.553913 0.0211836 0.0397619
400 1 0.0489947 0.269794 0.137406
469 1 0.403726 0.421734 0.0364231
380 1 0.356539 0.38552 0.15606
340 1 0.517177 0.382627 0.029407
158 1 0.543555 0.364015 0.134094
497 1 0.201958 0.298592 0.144945
363 1 0.806688 0.438964 0.0664179
211 1 0.125486 0.266997 0.121417
22 1 0.746055 0.391889 0.169671
85 1 0.894124 0.205098 0.0713524
258 1 0.505146 0.160936 0.194947
170 1 0.197835 0.383691 0.215282
70 1 0.576485 0.148387 0.231267
320 1 0.829523 0.361692 0.329243
163 1 0.508709 0.388523 0.212401
87 1 0.734226 0.202142 0.226172
351 1 0.0827526 0.485118 0.258067
271 1 0.906743 0.283675 0.223107
287 1 0.113765 0.271558 0.339028
352 1 0.607634 0.49601 0.270942
454 1 0.805153 0.0327015 0.290286
188 1 0.633296 0.10993 0.281583
333 1 0.899176 0.332096 0.293926
277 1 0.00767955 0.214957 0.318164
417 1 0.874292 0.0146508 0.261019
391 1 0.813539 0.137917 0.347562
101 1 0.707646 0.383178 0.242702
418 1 0.993369 0.298976 0.304402
68 1 0.538329 0.438004 0.379539
109 1 0.096518 0.41438 0.294399
433 1 0.670088 0.379843 0.375918
325 1 0.129213 0.0185618 0.328752
223 1 0.676875 0.439933 0.289174
405 1 0.066889 0.0655765 0.305774
464 1 0.531798 0.269458 0.303403
5 1 0.779569 0.270936 0.383423
503 1 0.567035 0.134538 0.308034
116 1 0.469678 0.377662 0.371038
266 1 0.504871 0.344378 0.284032
26 1 0.566477 0.256825 0.375253
4 1 0.406582 0.425654 0.370481
341 1 0.699478 0.171704 0.287273
86 1 0.0656301 0.337221 0.298459
334 1 0.219331 0.0211777 0.34079
273 1 0.821334 0.418617 0.382541
481 1 0.847083 0.238927 0.215153
342 1 0.606614 0.429134 0.347865
386 1 0.0735883 0.217788 0.372051
207 1 0.778766 0.208702 0.307099
366 1 0.959306 0.0506855 0.283714
89 1 0.995945 0.130729 0.286975
322 1 0.562439 0.168578 0.380511
173 1 0.209744 0.28059 0.349937
16 1 0.830842 0.0354513 0.379017
435 1 0.265813 0.026447 0.399185
40 1 0.243963 0.467049 0.201424
19 1 0.220935 0.485668 0.537541
205 1 0.407601 0.00939119 0.54863
302 1 0.862937 0.405031 0.560776
11 1 0.0862128 0.194238 0.453055
67 1 0.380473 0.180788 0.546889
411 1 0.280875 0.370187 0.431111
393 1 0.244717 0.306711 0.413567
293 1 0.380427 0.236006 0.594234
37 1 0.438755 0.0976229 0.434809
10 1 0.0252635 0.479506 0.532938
470 1 0.752733 0.232311 0.440479
213 1 0.411751 0.15512 0.472223
60 1 0.513766 0.0450053 0.461158
243 1 0.714716 0.208796 0.517557
257 1 0.742243 0.0360623 0.47215
71 1 0.49488 0.319088 0.431392
235 1 0.354413 0.434991 0.419488
79 1 0.557708 0.160024 0.534064
421 1 0.999438 0.010413 0.515134
171 1 0.746286 0.118674 0.501905
420 1 0.483792 0.339072 0.507251
216 1 0.327559 0.293644 0.558703
15 1 0.0773516 0.168546 0.585855
355 1 0.634883 0.335265 0.499545
164 1 0.613937 0.316162 0.420088
281 1 0.2459 0.0926088 0.460317
91 1 0.826854 0.464936 0.444322
506 1 0.123985 0.488856 0.506851
311 1 0.720727 0.383046 0.503784
139 1 0.757381 0.413876 0.563041
462 1 0.49773 0.396637 0.570901
357 1 0.0493003 0.138108 0.521924
129 1 0.537123 0.123321 0.453816
241 1 0.480664 0.47847 0.556041
328 1 0.268104 0.331671 0.49629
147 1 0.343064 0.433474 0.590139
165 1 0.868183 0.473348 0.52028
45 1 0.0879918 0.441882 0.559535
307 1 0.177509 0.133544 0.45697
372 1 0.637666 0.206107 0.54922
14 1 0.347206 0.462514 0.504048
423 1 0.727149 0.426842 0.440827
34 1 0.601583 0.277623 0.559779
41 1 0.200334 0.308728 0.546147
42 1 0.785465 0.157533 0.433595
269 1 0.992018 0.0934838 0.560388
354 1 0.254603 0.433012 0.598524
467 1 0.927958 0.424104 0.791618
231 1 0.788276 0.146765 0.737064
242 1 0.653614 0.399797 0.724607
113 1 0.188608 0.425642 0.649655
368 1 0.668763 0.0282246 0.618175
121 1 0.0300417 0.426293 0.746884
491 1 0.431521 0.107266 0.680639
140 1 0.0293725 0.372179 0.685737
110 1 0.978034 0.211271 0.731256
489 1 0.902951 0.495563 0.729794
312 1 0.536821 0.0224076 0.647995
152 1 0.815941 0.230671 0.742368
483 1 0.197294 0.278185 0.616888
24 1 0.8501 0.0493411 0.631162
446 1 0.707805 0.340811 0.748862
507 1 0.808742 0.423505 0.621021
425 1 0.844977 0.0937444 0.710161
453 1 0.845665 0.371411 0.676161
314 1 0.0221893 0.139982 0.786696
177 1 0.644143 0.13627 0.762474
88 1 0.234771 0.321764 0.704339
248 1 0.0225339 0.212467 0.655319
498 1 0.881221 0.349578 0.753869
360 1 0.0997138 0.377978 0.620409
130 1 0.330369 0.32811 0.702699
389 1 0.719039 0.127884 0.727129
64 1 0.138317 0.331265 0.748325
438 1 0.457618 0.379855 0.702964
336 1 0.441561 0.184479 0.708154
112 1 0.361089 0.354204 0.60801
219 1 0.399057 0.243881 0.679048
56 1 0.239983 0.23685 0.742274
220 1 0.841789 0.469426 0.685448
233 1 0.511803 0.0652358 0.71333
316 1 0.406072 0.349217 0.746709
396 1 0.906089 0.361671 0.614172
299 1 0.555914 0.135139 0.751917
431 1 0.0645179 0.263966 0.612615
295 1 0.897431 0.249126 0.762535
74 1 0.691649 0.0631358 0.685927
494 1 0.168968 0.190149 0.768684
13 1 0.504752 0.369759 0.646488
100 1 0.978513 0.323635 0.626667
238 1 0.0986626 0.241217 0.74364
245 1 0.712192 0.271526 0.743059
252 1 0.923283 0.0489234 0.629989
370 1 0.387931 0.091647 0.618959
201 1 0.145375 0.211825 0.63391
488 1 0.535837 0.304247 0.607245
504 1 0.0938791 0.234844 0.969631
465 1 0.487287 0.463962 0.899849
275 1 0.978457 0.338917 0.814503
222 1 0.113733 0.375695 0.890641
280 1 0.952076 0.374169 0.900733
115 1 0.41858 0.117262 0.895458
409 1 0.0582403 0.0167012 0.823981
461 1 0.549858 0.465701 0.829888
296 1 0.0595932 0.164092 0.976646
445 1 0.827119 0.424053 0.900737
373 1 0.689499 0.398898 0.817636
482 1 0.311136 0.0441995 0.824198
169 1 0.171751 0.0802887 0.969862
39 1 0.372636 0.0525606 0.902451
346 1 0.194733 0.248392 0.829835
138 1 0.408251 0.354867 0.909105
49 1 0.329819 0.383394 0.971821
159 1 0.466258 0.151015 0.960658
511 1 0.270401 0.224793 0.814251
30 1 0.734171 0.0904772 0.894363
157 1 0.198457 0.395213 0.902317
315 1 0.616258 0.370518 0.857076
80 1 0.349676 0.298699 0.927341
379 1 0.836807 0.341428 0.905102
148 1 0.673085 0.0595451 0.894992
217 1 0.398264 0.403929 0.8273
261 1 0.904596 0.115021 0.879412
81 1 0.464255 0.409242 0.964515
430 1 0.524631 0.207163 0.949872
254 1 0.189055 0.480261 0.894011
276 1 0.61573 0.2863 0.860463
450 1 0.659615 0.208796 0.818901
178 1 0.796467 0.0568471 0.929416
327 1 0.909118 0.443302 0.886683
321 1 0.851407 0.101997 0.963441
415 1 0.618908 0.019672 0.914403
90 1 0.34788 0.465571 0.855175
512 1 0.952106 0.247251 0.992148
44 1 0.107371 0.0692331 0.827679
117 1 0.469714 0.124805 0.839142
119 1 0.0968198 0.0504965 0.901729
172 1 0.140412 0.305426 0.835916
190 1 0.971471 0.0948606 0.845912
48 1 0.24874 0.076717 0.813672
451 1 0.555623 0.239341 0.880249
214 1 0.262964 0.407367 0.958888
3 1 0.792383 0.209597 0.819053
124 1 0.80819 0.27843 0.888597
23 1 0.722556 0.173115 0.860208
131 1 0.556473 0.00163978 0.970279
77 1 0.938435 0.326405 0.990901
480 1 0.172959 0.10819 0.801433
43 1 0.496333 0.181426 0.80141
324 1 0.650653 0.866894 0.131097
493 1 0.983361 0.574262 0.041693
7 1 0.0967068 0.882038 0.124757
331 1 0.410291 0.666184 0.0892773
97 1 0.963998 0.846925 0.14966
168 1 0.0986027 0.805941 0.151313
246 1 0.568898 0.699415 0.10225
290 1 0.573643 0.748946 0.172396
251 1 0.106064 0.602963 0.0658285
264 1 0.30694 0.882861 0.169878
294 1 0.254578 0.89571 0.108572
288 1 0.775664 0.860591 0.12046
304 1 0.422116 0.919386 0.066812
385 1 0.408634 0.856326 0.113369
313 1 0.0375875 0.747966 0.164119
262 1 0.17765 0.908754 0.114041
20 1 0.63379 0.716444 0.0540768
485 1 0.978379 0.727644 0.0714735
301 1 0.479714 0.981775 0.0827125
125 1 0.448803 0.794656 0.120933
440 1 0.237258 0.725621 0.130379
359 1 0.225603 0.751525 0.0572933
452 1 0.70367 0.907059 0.112303
132 1 0.210519 0.600828 0.0601038
492 1 0.0155063 0.59175 0.110642
332 1 0.49852 0.736324 0.0732234
61 1 0.705121 0.587272 0.0733278
381 1 0.0121734 0.940777 0.0468723
326 1 0.841906 0.736834 0.111034
78 1 0.904953 0.575044 0.19481
75 1 0.385273 0.855744 0.191996
46 1 0.783081 0.779012 0.124848
83 1 0.917081 0.779183 0.104908
410 1 0.445114 0.525549 0.127595
416 1 0.414465 0.706501 0.159337
154 1 0.965352 0.666751 0.0243942
339 1 0.504091 0.571573 0.166431
55 1 0.180655 0.661724 0.00206011
390 1 0.357353 0.655013 0.167461
444 1 0.574146 0.60259 0.153148
298 1 0.991813 0.57773 0.184604
479 1 0.622401 0.559975 0.0975467
145 1 0.137963 0.928106 0.0196094
402 1 0.826099 0.66118 0.0604234
283 1 0.81403 0.924476 0.146687
194 1 0.0167292 0.895475 0.105625
455 1 0.855516 0.555789 0.124295
57 1 0.445547 0.6911 0.0233877
95 1 0.791039 0.602563 0.131433
378 1 0.179859 0.588659 0.131097
62 1 0.852087 0.967186 0.187232
161 1 0.283855 0.787493 0.0219346
437 1 0.353967 0.924291 0.0128732
225 1 0.190998 0.52246 0.167377
134 1 0.301504 0.706472 0.171529
499 1 0.133542 0.735184 0.162493
186 1 0.978764 0.785122 0.194507
179 1 0.724588 0.615085 0.00239631
434 1 0.110034 0.686003 0.00142133
282 1 0.890923 0.662078 0.0181997
285 1 0.691327 0.833867 0.265826
198 1 0.000214392 0.778343 0.29421
166 1 0.26778 0.994571 0.276079
104 1 0.48258 0.606911 0.244216
330 1 0.277627 0.803007 0.380729
72 1 0.95689 0.689091 0.298303
289 1 0.0329431 0.550096 0.253726
279 1 0.489076 0.568297 0.338488
406 1 0.399167 0.632518 0.23008
92 1 0.494922 0.846454 0.343236
234 1 0.33549 0.62877 0.285642
428 1 0.125813 0.747836 0.261581
31 1 0.556315 0.869189 0.269561
265 1 0.383733 0.818561 0.26364
394 1 0.216079 0.708723 0.297994
33 1 0.670285 0.618325 0.289692
204 1 0.892651 0.650342 0.305802
256 1 0.0346221 0.658147 0.381031
361 1 0.117983 0.644092 0.262887
108 1 0.406778 0.502055 0.336966
362 1 0.84702 0.632062 0.242336
28 1 0.570099 0.558055 0.361911
229 1 0.625849 0.858748 0.216527
212 1 0.631571 0.569418 0.218904
18 1 0.075366 0.791657 0.329972
259 1 0.760179 0.813418 0.305138
348 1 0.772997 0.841123 0.376541
76 1 0.239778 0.869691 0.39812
404 1 0.276511 0.675188 0.249852
272 1 0.335467 0.564649 0.342824
123 1 0.6402 0.603197 0.371187
476 1 0.0455056 0.635185 0.298978
127 1 0.720233 0.687488 0.246616
305 1 0.712035 0.758188 0.282179
180 1 0.417266 0.817706 0.332868
9 1 0.204887 0.637374 0.265512
424 1 0.286621 0.938848 0.233793
167 1 0.56216 0.844671 0.395794
270 1 0.25457 0.725976 0.388144
297 1 0.272548 0.529136 0.377597
408 1 0.36752 0.831313 0.398267
53 1 0.116665 0.779121 0.398175
1 1 0.77657 0.642803 0.2033
422 1 0.679056 0.977798 0.501521
210 1 0.205554 0.925578 0.548613
447 1 0.539375 0.523374 0.50491
21 1 0.700054 0.766261 0.506075
27 1 0.134446 0.548537 0.449662
463 1 0.526037 0.782411 0.504462
189 1 0.384485 0.899196 0.440157
510 1 0.0389981 0.808797 0.515995
65 1 0.216199 0.846173 0.561611
240 1 0.189825 0.758532 0.537325
224 1 0.684118 0.600457 0.495791
484 1 0.0496498 0.590392 0.438956
209 1 0.54736 0.51145 0.433271
329 1 0.648748 0.727473 0.443118
105 1 0.562884 0.995155 0.437461
221 1 0.350228 0.9862 0.400984
191 1 0.872119 0.629681 0.529192
59 1 0.36317 0.591719 0.41518
496 1 0.76818 0.906298 0.42273
268 1 0.826349 0.774721 0.514124
472 1 0.241399 0.572829 0.520635
398 1 0.0463461 0.724539 0.508825
369 1 0.615677 0.529525 0.559567
292 1 0.386655 0.797722 0.59277
128 1 0.894696 0.799143 0.543897
63 1 0.210152 0.566788 0.426809
308 1 0.551371 0.868197 0.522933
228 1 0.313344 0.588917 0.586763
317 1 0.645629 0.652241 0.430426
448 1 0.563867 0.899267 0.453227
318 1 0.761455 0.780469 0.45791
267 1 0.135736 0.960327 0.428916
356 1 0.904868 0.547781 0.528568
253 1 0.941079 0.939588 0.534741
502 1 0.975299 0.847789 0.543191
495 1 0.22491 0.624657 0.578513
52 1 0.988321 0.534216 0.486416
38 1 0.388249 0.587554 0.592257
419 1 0.179369 0.733293 0.439935
146 1 0.14171 0.976799 0.518652
473 1 0.308272 0.928514 0.412548
501 1 0.692303 0.838618 0.553006
508 1 0.407116 0.516489 0.546843
184 1 0.0813348 0.69275 0.447452
141 1 0.986069 0.69027 0.555952
199 1 0.0688216 0.837924 0.441678
144 1 0.57611 0.766959 0.421247
509 1 0.82372 0.694154 0.536753
2 1 0.705999 0.898872 0.495917
300 1 0.0801598 0.996319 0.574293
50 1 0.40056 0.815471 0.512926
155 1 0.928584 0.749491 0.598529
120 1 0.368612 0.934053 0.572218
236 1 0.532164 0.732322 0.568919
414 1 0.580381 0.926475 0.576948
388 1 0.395421 0.660341 0.423322
51 1 0.787164 0.993425 0.431128
460 1 0.627331 0.994317 0.568133
367 1 0.458118 0.635587 0.593633
230 1 0.457441 0.614724 0.401301
260 1 0.162105 0.886151 0.41343
338 1 0.271612 0.796706 0.681225
358 1 0.122632 0.808799 0.668112
103 1 0.0611464 0.758337 0.696859
32 1 0.588777 0.74039 0.628131
102 1 0.575721 0.576591 0.625092
206 1 0.123312 0.886905 0.651554
35 1 0.081624 0.731245 0.776647
397 1 0.594577 0.578854 0.70788
310 1 0.30937 0.918883 0.703722
175 1 0.44128 0.868368 0.715438
278 1 0.879797 0.940525 0.788733
195 1 0.277496 0.967419 0.768326
442 1 0.136521 0.904889 0.747792
69 1 0.502002 0.936597 0.709564
215 1 0.529229 0.988996 0.769839
73 1 0.564588 0.819865 0.755697
449 1 0.540287 0.650473 0.600718
399 1 0.642911 0.592482 0.769578
226 1 0.960146 0.776125 0.67702
250 1 0.559266 0.751141 0.794724
12 1 0.352693 0.763902 0.653485
395 1 0.42569 0.749521 0.782504
456 1 0.892554 0.892845 0.671638
384 1 0.754602 0.602691 0.645683
84 1 0.685118 0.633196 0.616278
174 1 0.106864 0.613904 0.609601
149 1 0.0210572 0.525569 0.794132
337 1 0.1946 0.77538 0.663439
29 1 0.945722 0.842315 0.709605
25 1 0.54455 0.952084 0.643843
200 1 0.41874 0.789989 0.721967
505 1 0.0335325 0.644389 0.605359
323 1 0.790002 0.522281 0.66382
345 1 0.947453 0.553451 0.751391
349 1 0.938651 0.6187 0.719484
459 1 0.0786325 0.95488 0.644414
344 1 0.924548 0.946072 0.61715
458 1 0.123117 0.572421 0.666789
36 1 0.604147 0.812351 0.678987
284 1 0.940979 0.692339 0.693689
413 1 0.166796 0.511992 0.696206
291 1 0.549546 0.900237 0.762687
239 1 0.643468 0.867771 0.629389
478 1 0.329733 0.904674 0.637612
436 1 0.0966666 0.576698 0.769868
99 1 0.0784773 0.653138 0.799825
237 1 0.13263 0.831433 0.759766
375 1 0.677945 0.653112 0.790397
477 1 0.185288 0.553555 0.763055
162 1 0.819619 0.685407 0.621824
6 1 0.606935 0.504121 0.791813
227 1 0.941524 0.888621 0.791701
176 1 0.213698 0.712119 0.613283
412 1 0.626667 0.863246 0.899151
343 1 0.430772 0.546997 0.894829
500 1 0.0436692 0.653588 0.865041
137 1 0.553985 0.863828 0.937905
135 1 0.87926 0.661863 0.839604
429 1 0.829237 0.985554 0.825602
466 1 0.970161 0.519683 0.909635
98 1 0.185235 0.732011 0.865399
156 1 0.731816 0.75968 0.887587
153 1 0.852527 0.575062 0.898044
403 1 0.12115 0.779924 0.827164
183 1 0.665055 0.792547 0.921592
439 1 0.836643 0.992873 0.905836
487 1 0.490265 0.918545 0.906996
471 1 0.940013 0.884263 0.887778
457 1 0.810556 0.500707 0.904354
82 1 0.30647 0.807414 0.918305
486 1 0.719052 0.704954 0.825783
136 1 0.354597 0.582582 0.862136
66 1 0.079681 0.863077 0.889075
347 1 0.359074 0.983147 0.925628
185 1 0.527366 0.969458 0.846052
181 1 0.588547 0.574002 0.940678
202 1 0.746374 0.939963 0.807907
387 1 0.0538469 0.797104 0.983258
203 1 0.510809 0.701383 0.845549
150 1 0.414294 0.629501 0.877291
122 1 0.978856 0.691372 0.939395
364 1 0.251122 0.770411 0.874171
432 1 0.549664 0.791709 0.986691
475 1 0.0643983 0.69731 0.928338
143 1 0.849385 0.637052 0.939904
111 1 0.00914644 0.56867 0.86777
208 1 0.9217 0.960755 0.912347
244 1 0.0320981 0.982087 0.988069
274 1 0.625528 0.749804 0.97878
426 1 0.771227 0.675008 0.970287
303 1 0.975873 0.781735 0.981507
335 1 0.460337 0.634615 0.950091
383 1 0.296755 0.539406 0.859815
374 1 0.815818 0.736584 0.830453
107 1 0.667146 0.556607 0.955226
247 1 0.53154 0.609936 0.95251
106 1 0.426276 0.93867 0.954903
263 1 0.0968979 0.933252 0.834562
401 1 0.421401 0.683139 0.808564
382 1 0.694413 0.936044 0.859477
114 1 0.216917 0.533665 0.845125
306 1 0.122523 0.996967 0.976655
376 1 0.963835 0.518129 0.991648
47 1 0.297358 0.862557 0.999009
182 1 0.181992 0.959138 0.802386
