ITEM: TIMESTEP
0
ITEM: NUMBER OF ATOMS
512
ITEM: BOX BOUNDS pp pp pp
0.0000000000000000e+00 1.7235477520000000e+01
0.0000000000000000e+00 1.7235477520000000e+01
0.0000000000000000e+00 1.7235477520000000e+01
ITEM: ATOMS id type xs ys zs
487 1 0.0667926 0.102462 0.0731434
296 1 0.257379 0.0493239 0.0660406
106 1 0.463821 0.0171536 0.0278444
142 1 0.380151 0.0956913 0.0767413
234 1 0.427713 0.151609 0.0228639
426 1 0.663675 0.0695008 0.154435
164 1 0.705352 0.118083 0.0804966
208 1 0.717453 0.00830063 0.114186
256 1 0.808264 0.0202941 0.000609221
292 1 0.74374 0.0805345 0.146175
37 1 0.988025 0.109926 0.153812
52 1 0.918908 0.0428314 0.155511
314 1 0.964251 0.000250661 0.0673598
481 1 0.891708 0.0208558 0.0654218
325 1 0.0186283 0.218682 0.102135
493 1 0.0478109 0.281497 0.189359
141 1 0.281848 0.240041 0.0287519
277 1 0.218771 0.32019 0.15752
472 1 0.325523 0.185548 0.144333
497 1 0.180396 0.204383 0.0907559
104 1 0.342598 0.203827 0.0142491
148 1 0.486468 0.320475 0.0153787
163 1 0.449292 0.225862 0.101776
333 1 0.502954 0.181638 0.188266
511 1 0.561025 0.195723 0.00928168
181 1 0.799615 0.259847 0.186204
257 1 0.735739 0.185584 0.108635
322 1 0.687406 0.30831 0.0160589
42 1 0.874234 0.221402 0.114165
81 1 0.938245 0.294028 0.180049
191 1 0.859059 0.167879 0.0293606
196 1 0.126318 0.348046 0.00509903
286 1 0.0559377 0.366857 0.159069
338 1 0.264122 0.439956 0.117397
362 1 0.312915 0.357862 0.131849
95 1 0.357509 0.455316 0.186434
303 1 0.377857 0.426038 0.10821
449 1 0.435933 0.398824 0.0389108
55 1 0.648501 0.492342 0.155472
160 1 0.620782 0.357175 0.0172036
214 1 0.566066 0.475691 0.0313065
276 1 0.550269 0.354996 0.0277401
363 1 0.656505 0.471893 0.0306209
382 1 0.539712 0.374373 0.166765
199 1 0.756466 0.356587 0.0705365
220 1 0.782632 0.369951 0.153629
61 1 0.905581 0.49226 0.178548
132 1 0.927881 0.363473 0.144116
23 1 0.00572484 0.165168 0.244989
185 1 0.00453539 0.061903 0.313994
255 1 0.0935945 0.0569973 0.251514
368 1 0.0766834 0.150818 0.32247
396 1 0.0223732 0.0120449 0.252451
437 1 0.0105313 0.0770737 0.229171
92 1 0.274859 0.0617036 0.205269
244 1 0.221918 0.0543575 0.279094
86 1 0.421242 0.126643 0.322313
93 1 0.385799 0.010486 0.275274
233 1 0.357656 0.160464 0.21017
350 1 0.441057 0.113933 0.213661
444 1 0.334266 0.157676 0.305857
87 1 0.605079 0.118486 0.398245
388 1 0.634432 0.0755105 0.309978
474 1 0.524505 0.0207201 0.334225
477 1 0.551627 0.085832 0.337569
266 1 0.721542 0.0673502 0.336116
390 1 0.722511 0.0879214 0.228174
114 1 0.884402 0.090351 0.272525
231 1 0.947822 0.0585422 0.35948
269 1 0.864012 0.165693 0.337435
270 1 0.912868 0.140391 0.314364
197 1 0.0142981 0.281 0.395729
462 1 0.0487115 0.254563 0.331137
101 1 0.316943 0.253856 0.343105
166 1 0.203765 0.276646 0.30503
194 1 0.167331 0.207756 0.252244
447 1 0.26093 0.217219 0.218512
51 1 0.334165 0.252775 0.222913
243 1 0.472604 0.306383 0.314726
76 1 0.810392 0.2935 0.280138
168 1 0.728281 0.236824 0.377051
456 1 0.732496 0.171706 0.324287
15 1 0.991766 0.302838 0.251289
217 1 0.916394 0.324724 0.302178
271 1 0.951276 0.191977 0.395899
386 1 0.869587 0.258848 0.255051
451 1 0.912487 0.298081 0.385108
219 1 0.127631 0.340214 0.319788
358 1 0.0909703 0.4585 0.338883
366 1 0.142917 0.390261 0.37581
448 1 0.0713976 0.378295 0.289706
480 1 0.109579 0.447532 0.211111
112 1 0.302866 0.442445 0.343617
237 1 0.303821 0.376083 0.25728
253 1 0.238568 0.39621 0.221407
309 1 0.208058 0.373778 0.321128
171 1 0.435574 0.358655 0.213927
317 1 0.387165 0.334081 0.393696
31 1 0.624336 0.371796 0.240602
143 1 0.580223 0.469003 0.295539
249 1 0.588998 0.382498 0.360074
323 1 0.526422 0.430213 0.389699
405 1 0.721858 0.377294 0.369939
85 1 0.964919 0.369606 0.397744
91 1 0.936516 0.490868 0.306677
108 1 0.930065 0.414671 0.323941
116 1 0.995177 0.441275 0.207542
351 1 0.862637 0.377233 0.27573
336 1 0.0357087 0.0838876 0.507948
385 1 0.148353 0.0724316 0.48054
58 1 0.293523 0.0306868 0.52499
332 1 0.234781 0.00856418 0.575511
343 1 0.303438 0.106722 0.585078
357 1 0.18906 0.0931782 0.55796
213 1 0.389136 0.0066408 0.476306
490 1 0.404317 0.0715479 0.541986
158 1 0.507529 0.129576 0.454175
342 1 0.652889 0.00942538 0.411245
344 1 0.549144 0.0114134 0.503057
375 1 0.577727 0.0210244 0.403776
470 1 0.615788 0.0346185 0.593257
30 1 0.700631 0.016854 0.484818
398 1 0.833316 0.00614841 0.479502
433 1 0.694424 0.0780581 0.572208
287 1 0.950626 0.141896 0.502371
394 1 0.884358 0.094546 0.57279
264 1 0.163449 0.291104 0.466234
318 1 0.150255 0.192187 0.525701
328 1 0.0360005 0.318042 0.46209
475 1 0.0448932 0.220787 0.53831
251 1 0.179342 0.19011 0.412816
337 1 0.211182 0.323763 0.531343
369 1 0.321446 0.181785 0.470443
391 1 0.247439 0.253115 0.500744
313 1 0.470964 0.197223 0.407947
492 1 0.348542 0.242901 0.516185
24 1 0.533928 0.250264 0.409886
62 1 0.506865 0.249118 0.556464
82 1 0.664485 0.268126 0.530131
122 1 0.589632 0.324554 0.58676
339 1 0.561485 0.310826 0.437594
222 1 0.787308 0.332413 0.555933
346 1 0.721475 0.213468 0.575419
40 1 0.948105 0.321917 0.498041
190 1 0.914577 0.29369 0.586825
305 1 0.841571 0.258833 0.450864
341 1 0.896027 0.270643 0.523395
345 1 0.870448 0.331768 0.497891
41 1 0.0149944 0.478006 0.443774
74 1 0.136058 0.469289 0.440511
157 1 0.0568289 0.424031 0.403032
302 1 0.100422 0.4557 0.560239
506 1 0.147836 0.412657 0.512887
301 1 0.264368 0.421679 0.445633
446 1 0.464637 0.362877 0.54643
461 1 0.429714 0.491002 0.500528
13 1 0.628693 0.494618 0.550687
154 1 0.649926 0.429495 0.404895
488 1 0.511292 0.477002 0.503812
502 1 0.643642 0.377684 0.548176
28 1 0.740616 0.477079 0.418821
236 1 0.756867 0.484056 0.596338
403 1 0.735938 0.397885 0.519888
1 1 0.0550763 0.0463143 0.768883
415 1 0.146078 0.116262 0.631718
505 1 0.0552845 0.0830083 0.682306
111 1 0.209561 0.108946 0.7107
131 1 0.178777 0.0923405 0.777867
218 1 0.318123 0.0281379 0.695926
56 1 0.421768 0.000611846 0.65818
109 1 0.401828 0.115597 0.660878
150 1 0.354103 0.0239727 0.775032
8 1 0.627233 0.0825562 0.715414
187 1 0.62079 0.094041 0.630374
430 1 0.548324 0.150619 0.657772
32 1 0.746734 0.146825 0.742176
100 1 0.756433 0.0270514 0.641952
193 1 0.686638 0.0104116 0.722335
424 1 0.668584 0.153016 0.746693
238 1 0.91088 0.0891144 0.78576
381 1 0.983186 0.0680875 0.601908
202 1 0.121527 0.184528 0.683365
473 1 0.123349 0.261706 0.780321
252 1 0.327504 0.227213 0.616205
307 1 0.328328 0.187496 0.747417
454 1 0.187482 0.327376 0.671528
510 1 0.293859 0.288905 0.626403
90 1 0.474626 0.207736 0.682571
136 1 0.379703 0.241533 0.771435
460 1 0.444928 0.267118 0.744187
512 1 0.378588 0.19486 0.689958
89 1 0.607198 0.251536 0.613472
335 1 0.632203 0.171618 0.656928
372 1 0.530061 0.183085 0.729678
275 1 0.766156 0.202416 0.680029
364 1 0.826413 0.245709 0.701097
7 1 0.989715 0.189063 0.630026
97 1 0.99952 0.282681 0.693925
210 1 0.931293 0.166942 0.671883
498 1 0.903514 0.25384 0.752617
21 1 0.131543 0.342581 0.606773
184 1 0.0277508 0.394863 0.734432
54 1 0.328827 0.361575 0.650488
73 1 0.29944 0.489021 0.770244
177 1 0.193506 0.471883 0.602137
482 1 0.261762 0.389531 0.77397
250 1 0.468305 0.382808 0.678016
507 1 0.379775 0.496269 0.632299
260 1 0.578479 0.34574 0.737291
370 1 0.713093 0.363666 0.743898
67 1 0.878642 0.422293 0.690972
397 1 0.99659 0.488923 0.690043
359 1 0.0562956 0.151423 0.834735
4 1 0.481227 0.16177 0.864165
121 1 0.392879 0.0333439 0.944079
297 1 0.408574 0.0455987 0.862994
178 1 0.51295 0.0356839 0.979736
6 1 0.786239 0.156979 0.822243
117 1 0.754164 0.106524 0.930129
229 1 0.695373 0.161609 0.905622
274 1 0.743864 0.0552781 0.841603
88 1 0.984615 0.0739357 0.885358
103 1 0.924351 0.0365691 0.866494
195 1 0.84697 0.146519 0.890565
353 1 0.93769 0.15144 0.950505
392 1 0.94182 0.0393874 0.950171
29 1 0.0800592 0.222895 0.889016
209 1 0.163714 0.284497 0.898999
215 1 0.210765 0.308865 0.84325
99 1 0.42276 0.25538 0.850209
261 1 0.390686 0.194238 0.925706
420 1 0.446293 0.257925 0.970654
18 1 0.635189 0.307328 0.915196
33 1 0.651441 0.188808 0.981835
34 1 0.53874 0.283733 0.96582
450 1 0.574461 0.263654 0.858491
153 1 0.763154 0.318724 0.882399
393 1 0.816334 0.233218 0.944505
411 1 0.766051 0.185765 0.913412
59 1 0.983381 0.25527 0.92162
129 1 0.860045 0.312692 0.993922
227 1 0.997719 0.30944 0.868369
293 1 0.872695 0.301455 0.853932
123 1 0.079432 0.392984 0.863638
161 1 0.286252 0.446841 0.910541
267 1 0.391197 0.475637 0.884363
410 1 0.346206 0.446548 0.977814
464 1 0.372638 0.400869 0.871845
26 1 0.64303 0.393306 0.85135
118 1 0.675534 0.364925 0.928787
223 1 0.734638 0.46334 0.875613
340 1 0.717864 0.409265 0.965643
43 1 0.89193 0.386686 0.986676
331 1 0.845986 0.357754 0.821911
378 1 0.993056 0.372366 0.920476
485 1 0.882588 0.468444 0.867083
5 1 0.0470142 0.551865 0.114418
135 1 0.00901858 0.624893 0.0953291
291 1 0.162524 0.534511 0.131885
80 1 0.213009 0.519749 0.19846
145 1 0.170125 0.628407 0.0986421
404 1 0.189247 0.562634 0.00149355
483 1 0.258966 0.545892 0.135594
14 1 0.340821 0.557242 0.0882992
165 1 0.484519 0.594294 0.0830415
427 1 0.342014 0.560856 0.191665
500 1 0.474162 0.507509 0.141222
365 1 0.614154 0.653724 0.109304
248 1 0.761774 0.663508 0.04774
324 1 0.762111 0.633469 0.112143
367 1 0.768551 0.506603 0.0860921
389 1 0.755873 0.546593 0.0114933
409 1 0.960003 0.611791 0.0436728
417 1 0.853101 0.507474 0.0301961
2 1 0.1365 0.813029 0.0873428
326 1 0.147659 0.711526 0.182595
329 1 0.0832921 0.675603 0.0247266
484 1 0.237909 0.776082 0.110359
45 1 0.372558 0.703947 0.164901
311 1 0.485899 0.73966 0.125825
327 1 0.350645 0.768635 0.0558
468 1 0.441224 0.809293 0.0491377
130 1 0.57476 0.788911 0.0926168
457 1 0.535916 0.67284 0.153107
169 1 0.768965 0.825443 0.0474693
216 1 0.705891 0.720544 0.138065
44 1 0.854941 0.718154 0.109
125 1 0.973389 0.784857 0.0659229
239 1 0.908279 0.81611 0.124544
152 1 0.0601653 0.997488 0.0729673
285 1 0.11942 0.914153 0.168064
384 1 0.0873724 0.863442 0.0255933
395 1 0.118859 0.993948 0.120919
10 1 0.288046 0.850384 0.118444
57 1 0.308198 0.914495 0.0957921
105 1 0.267455 0.954419 0.0232604
204 1 0.278895 0.903259 0.199484
241 1 0.331448 0.837469 0.0478488
258 1 0.23155 0.968194 0.103245
354 1 0.230619 0.882688 0.0233212
133 1 0.369543 0.898782 0.00126397
246 1 0.492255 0.994977 0.0882963
263 1 0.387651 0.998621 0.0479758
294 1 0.405273 0.934548 0.158962
137 1 0.569538 0.92288 0.128067
280 1 0.628835 0.858971 0.0180997
134 1 0.767592 0.904724 0.0485793
281 1 0.685509 0.94681 0.165779
288 1 0.670092 0.85538 0.177691
48 1 0.987075 0.906094 0.0965948
423 1 0.863271 0.951594 0.170094
494 1 0.908217 0.901442 0.105308
75 1 0.00661259 0.53301 0.357919
144 1 0.127898 0.526812 0.219137
139 1 0.244063 0.611259 0.356585
155 1 0.284768 0.530159 0.297602
159 1 0.347044 0.593252 0.265195
282 1 0.446927 0.567321 0.201515
400 1 0.4637 0.537218 0.376058
486 1 0.392463 0.662471 0.239753
65 1 0.533018 0.601586 0.244947
247 1 0.630108 0.643581 0.397425
478 1 0.664253 0.550894 0.29003
35 1 0.682239 0.621474 0.284978
77 1 0.754924 0.625601 0.234027
373 1 0.759178 0.535258 0.206392
459 1 0.77614 0.576366 0.305274
173 1 0.871768 0.573355 0.252655
188 1 0.969868 0.517084 0.204688
496 1 0.994025 0.609564 0.384466
47 1 0.0156421 0.719783 0.335108
83 1 0.154727 0.806513 0.245709
230 1 0.287672 0.768185 0.365736
69 1 0.495471 0.711753 0.339571
278 1 0.475035 0.820634 0.239392
413 1 0.399955 0.774304 0.317147
20 1 0.578184 0.708711 0.208078
50 1 0.61293 0.813805 0.339264
102 1 0.531072 0.805523 0.317312
453 1 0.562853 0.709298 0.283022
283 1 0.782177 0.773629 0.361458
419 1 0.712595 0.758953 0.302308
445 1 0.737181 0.668774 0.29352
192 1 0.877204 0.710056 0.289259
259 1 0.880404 0.720237 0.211848
298 1 0.907219 0.786204 0.32346
330 1 0.992348 0.804298 0.298235
140 1 0.147267 0.887578 0.246822
262 1 0.0217533 0.834801 0.229486
434 1 0.092177 0.963632 0.212957
115 1 0.190022 0.937586 0.333257
176 1 0.204867 0.992587 0.212744
242 1 0.263195 0.895651 0.371067
361 1 0.292415 0.97751 0.350708
128 1 0.45053 0.848615 0.363203
119 1 0.676009 0.939662 0.29232
126 1 0.708375 0.866129 0.398809
60 1 0.890331 0.95536 0.248573
66 1 0.922 0.868765 0.232797
428 1 0.00451123 0.584404 0.533281
84 1 0.301173 0.599384 0.554391
120 1 0.177853 0.569497 0.49775
387 1 0.271249 0.551173 0.490019
416 1 0.222022 0.622338 0.548908
12 1 0.381369 0.542316 0.573695
147 1 0.476273 0.593562 0.555606
300 1 0.380272 0.528823 0.461062
79 1 0.537894 0.63293 0.486646
290 1 0.804719 0.549007 0.489944
308 1 0.670146 0.565893 0.551439
438 1 0.757135 0.583246 0.437567
3 1 0.853326 0.561918 0.553537
179 1 0.926759 0.52324 0.594901
225 1 0.965793 0.545567 0.449932
414 1 0.867477 0.66013 0.422937
463 1 0.966042 0.64404 0.502761
63 1 0.000495202 0.792594 0.533295
401 1 0.0721406 0.746685 0.500567
476 1 0.0905856 0.673458 0.415626
499 1 0.0531891 0.679354 0.502457
124 1 0.318412 0.677394 0.504301
380 1 0.254933 0.829859 0.575133
465 1 0.239141 0.715638 0.535751
289 1 0.441359 0.750492 0.491216
310 1 0.473266 0.81186 0.574662
138 1 0.739373 0.808674 0.473614
167 1 0.806604 0.832425 0.571533
469 1 0.720985 0.681622 0.558633
19 1 0.915585 0.819606 0.528678
232 1 0.95267 0.730592 0.541514
284 1 0.840242 0.781239 0.479957
349 1 0.864093 0.749278 0.579229
39 1 0.0583032 0.870346 0.431045
508 1 0.147981 0.998229 0.508774
509 1 0.145024 0.950588 0.428515
78 1 0.300427 0.909021 0.550514
205 1 0.20433 0.884997 0.494026
352 1 0.403431 0.925683 0.559768
491 1 0.497411 0.923298 0.52698
25 1 0.583552 0.89626 0.554831
295 1 0.814563 0.945447 0.560837
319 1 0.809185 0.905537 0.470616
320 1 0.776799 0.869686 0.477383
441 1 0.686021 0.956688 0.523907
46 1 0.899207 0.991827 0.534021
399 1 0.888706 0.908366 0.581647
94 1 0.10011 0.604918 0.6111
268 1 0.174106 0.619716 0.715638
379 1 0.262131 0.565903 0.797457
16 1 0.490829 0.505823 0.776118
376 1 0.430406 0.559022 0.741126
432 1 0.366967 0.565211 0.661439
72 1 0.604357 0.610018 0.632209
151 1 0.523015 0.598491 0.748199
212 1 0.718839 0.518454 0.779676
425 1 0.823801 0.657199 0.611673
431 1 0.767885 0.603309 0.655516
466 1 0.809 0.565963 0.779634
17 1 0.913089 0.505846 0.770415
198 1 0.995965 0.546212 0.607085
402 1 0.841748 0.580427 0.670749
504 1 0.949765 0.644417 0.734981
36 1 0.0907066 0.695292 0.661485
149 1 0.0675764 0.809882 0.704245
170 1 0.0438954 0.725201 0.731149
407 1 0.151727 0.783743 0.621695
9 1 0.193413 0.768661 0.705016
70 1 0.27523 0.66728 0.691172
200 1 0.329261 0.720318 0.79867
304 1 0.264716 0.69616 0.780162
53 1 0.459714 0.792342 0.716176
334 1 0.36559 0.813016 0.626472
458 1 0.339285 0.682402 0.645869
186 1 0.533377 0.671464 0.7665
228 1 0.526097 0.763208 0.609926
273 1 0.553611 0.814488 0.675589
64 1 0.8331 0.79985 0.699191
254 1 0.70832 0.769668 0.77606
371 1 0.71095 0.810085 0.60999
455 1 0.760811 0.709377 0.642179
127 1 0.990488 0.752433 0.620989
412 1 0.882394 0.779475 0.774279
479 1 0.947759 0.720092 0.669884
180 1 0.132926 0.985788 0.677434
306 1 0.0456918 0.890653 0.691194
355 1 0.109588 0.864145 0.655628
11 1 0.297045 0.972131 0.627445
174 1 0.172431 0.850711 0.705354
245 1 0.236847 0.939411 0.667543
422 1 0.463172 0.838188 0.782922
495 1 0.405952 0.866942 0.706607
207 1 0.585068 0.841433 0.612836
224 1 0.609752 0.961469 0.756363
272 1 0.62932 0.912363 0.642246
49 1 0.681237 0.892933 0.741606
356 1 0.737508 0.921983 0.607633
68 1 0.957044 0.928437 0.610907
421 1 0.862143 0.994486 0.721653
435 1 0.904232 0.985828 0.62355
442 1 0.985889 0.960252 0.668807
146 1 0.0162673 0.665453 0.912734
156 1 0.156939 0.511148 0.923625
203 1 0.00490337 0.633333 0.9905
27 1 0.26836 0.589634 0.937867
22 1 0.47111 0.621754 0.971008
71 1 0.49753 0.558855 0.867618
299 1 0.384819 0.519738 0.82389
440 1 0.370027 0.565438 0.984001
221 1 0.508274 0.538554 0.967112
321 1 0.663024 0.511976 0.947533
439 1 0.626543 0.647848 0.952447
467 1 0.55689 0.658295 0.959757
110 1 0.775457 0.617905 0.830205
471 1 0.738617 0.625834 0.900564
489 1 0.77749 0.523551 0.913045
315 1 0.925815 0.512295 0.917979
383 1 0.128539 0.775103 0.888176
316 1 0.203152 0.691789 0.876078
201 1 0.481598 0.740709 0.96443
279 1 0.388383 0.696254 0.855734
162 1 0.545907 0.822892 0.918084
226 1 0.642165 0.696494 0.870075
240 1 0.62797 0.78407 0.972466
348 1 0.663813 0.809606 0.867411
443 1 0.580938 0.732562 0.818293
501 1 0.547613 0.799852 0.838345
96 1 0.687312 0.748124 0.841299
377 1 0.811422 0.68008 0.907317
429 1 0.726388 0.770008 0.93159
175 1 0.95147 0.713315 0.928848
360 1 0.997787 0.683342 0.802864
172 1 0.0971517 0.892923 0.885366
189 1 0.040901 0.937392 0.993585
312 1 0.0246479 0.873358 0.884126
406 1 0.0810531 0.986746 0.940694
408 1 0.158821 0.927675 0.822289
235 1 0.276802 0.954551 0.953159
265 1 0.298262 0.840945 0.86409
347 1 0.31381 0.959468 0.85484
38 1 0.466251 0.852426 0.855266
107 1 0.476068 0.989105 0.814948
182 1 0.436395 0.985994 0.900274
183 1 0.481608 0.953876 0.902101
98 1 0.558389 0.931039 0.801946
211 1 0.608324 0.944939 0.863576
374 1 0.50463 0.960607 0.972117
452 1 0.611554 0.938762 0.949364
206 1 0.681943 0.909045 0.877875
418 1 0.764515 0.942435 0.943762
436 1 0.774238 0.869393 0.963412
503 1 0.804937 0.916989 0.882706
113 1 0.987494 0.946141 0.802632
