ITEM: TIMESTEP
200
ITEM: NUMBER OF ATOMS
512
ITEM: BOX BOUNDS pp pp pp
0.0000000000000000e+00 1.7235477520000000e+01
0.0000000000000000e+00 1.7235477520000000e+01
0.0000000000000000e+00 1.7235477520000000e+01
ITEM: ATOMS id type xs ys zs
392 1 0.97388 0.0348668 0.122881
497 1 0.0156505 0.161806 0.029575
99 1 0.316884 0.377583 0.172272
277 1 0.171022 0.402388 0.137552
180 1 0.893151 0.0142643 0.10009
493 1 0.133133 0.479165 0.0311988
237 1 0.189308 0.247801 0.105291
340 1 0.50264 0.421186 0.0721863
148 1 0.485259 0.218942 0.18365
263 1 0.379024 0.0892296 0.183488
37 1 0.661618 0.158574 0.164576
52 1 0.737279 0.112645 0.149608
245 1 0.0815403 0.139359 0.0102174
481 1 0.802989 0.287308 0.156933
325 1 0.755883 0.153662 0.0813297
258 1 0.3138 0.141134 0.0397161
243 1 0.404124 0.419229 0.140136
338 1 0.964835 0.243591 0.0373618
472 1 0.350756 0.0353967 0.0892332
296 1 0.317847 0.108651 0.132425
104 1 0.0105346 0.292717 0.107607
445 1 0.572094 0.491831 0.115291
163 1 0.323457 0.212701 0.0363145
456 1 0.562595 0.0699437 0.198993
43 1 0.99393 0.217392 0.181019
367 1 0.808991 0.185365 0.0210438
321 1 0.608118 0.320457 0.0448131
322 1 0.245232 0.443589 0.0106311
478 1 0.601434 0.447374 0.187056
22 1 0.409314 0.488147 0.0529427
376 1 0.224778 0.334185 0.154078
196 1 0.677942 0.130553 0.0206824
31 1 0.60706 0.278458 0.114182
459 1 0.709966 0.351341 0.12924
165 1 0.475649 0.469564 0.136249
23 1 0.0876658 0.338584 0.102026
315 1 0.684033 0.356445 0.199122
449 1 0.306202 0.298827 0.0568848
55 1 0.832711 0.139019 0.0659484
221 1 0.606508 0.402646 0.0324346
511 1 0.579189 0.252802 0.026852
276 1 0.857342 0.280252 0.0997761
199 1 0.957932 0.328192 0.158241
145 1 0.153554 0.482154 0.130728
185 1 0.210305 0.0881442 0.168738
15 1 0.0980796 0.123761 0.130293
303 1 0.162677 0.185093 0.141196
160 1 0.530493 0.299118 0.169791
359 1 0.0249338 0.144631 0.140722
161 1 0.26788 0.358326 0.0845713
233 1 0.0921242 0.296535 0.172329
61 1 0.855112 0.418468 0.190095
286 1 0.245794 0.446146 0.177257
271 1 0.936062 0.26035 0.192063
270 1 0.194926 0.0196688 0.17508
388 1 0.512609 0.144545 0.168773
500 1 0.631584 0.253075 0.18676
435 1 0.0871393 0.0395918 0.0511705
133 1 0.498934 0.0379099 0.00198495
417 1 0.477772 0.454258 0.211421
35 1 0.652276 0.496589 0.27323
339 1 0.830763 0.276845 0.348483
368 1 0.945192 0.153659 0.336541
301 1 0.396592 0.495834 0.211086
447 1 0.937525 0.418722 0.315274
92 1 0.292426 0.150841 0.334498
244 1 0.131576 0.103413 0.339742
382 1 0.618177 0.25171 0.297471
220 1 0.771842 0.0892694 0.328042
288 1 0.592245 0.0565655 0.301127
488 1 0.522745 0.484876 0.355974
2 1 0.266093 0.0171578 0.294407
483 1 0.210425 0.467031 0.253708
448 1 0.176899 0.449146 0.375261
51 1 0.592895 0.0392802 0.393593
400 1 0.223883 0.325547 0.269362
335 1 0.746702 0.385201 0.299897
47 1 0.0531538 0.00642447 0.332894
508 1 0.0175612 0.153473 0.284186
362 1 0.232954 0.00285947 0.374109
24 1 0.293939 0.324008 0.25282
46 1 0.740357 0.417068 0.38919
249 1 0.603663 0.491557 0.358394
462 1 0.853176 0.168478 0.252295
159 1 0.372673 0.389046 0.368138
166 1 0.378154 0.139389 0.346168
132 1 0.909702 0.450477 0.253229
74 1 0.332735 0.405979 0.309299
213 1 0.544131 0.154562 0.382325
281 1 0.624692 0.120365 0.264589
345 1 0.683368 0.282564 0.357107
480 1 0.130137 0.499891 0.251866
81 1 0.773874 0.332805 0.266986
477 1 0.25514 0.0911803 0.293987
60 1 0.798139 0.144843 0.220816
42 1 0.701708 0.104738 0.251777
391 1 0.166991 0.222106 0.263476
451 1 0.760074 0.239508 0.375866
317 1 0.434818 0.484638 0.276464
287 1 0.118223 0.1391 0.2726
197 1 0.822131 0.186125 0.373587
95 1 0.112444 0.292912 0.276364
309 1 0.995113 0.368263 0.309782
343 1 0.141208 0.0260195 0.377746
444 1 0.416527 0.337296 0.39435
333 1 0.404371 0.157076 0.219374
114 1 0.968599 0.103999 0.202595
219 1 0.993676 0.294666 0.536308
101 1 0.357089 0.184996 0.421671
58 1 0.28737 0.168883 0.424185
320 1 0.689009 0.00981869 0.595152
41 1 0.836137 0.318076 0.412837
86 1 0.511483 0.0180482 0.433381
492 1 0.418762 0.00983331 0.437647
490 1 0.473895 0.0918551 0.548488
158 1 0.519341 0.0328832 0.53641
319 1 0.00412848 0.063257 0.508876
386 1 0.92126 0.160713 0.411611
112 1 0.169166 0.456534 0.509567
264 1 0.995507 0.329104 0.4042
30 1 0.781945 0.126926 0.45164
72 1 0.495623 0.446049 0.450716
62 1 0.5346 0.243504 0.497084
231 1 0.980481 0.111631 0.448423
217 1 0.405421 0.236115 0.422062
498 1 0.862082 0.207725 0.573175
318 1 0.397809 0.468164 0.580247
398 1 0.0821322 0.00613221 0.51258
475 1 0.987314 0.389886 0.55648
512 1 0.556138 0.187126 0.556502
337 1 0.330457 0.421449 0.576293
272 1 0.725115 0.19838 0.54129
308 1 0.850638 0.430781 0.512885
177 1 0.0960437 0.492307 0.545964
76 1 0.448158 0.415866 0.524748
187 1 0.726554 0.327801 0.52732
351 1 0.746247 0.328169 0.436677
89 1 0.449405 0.239463 0.513218
405 1 0.595541 0.234421 0.471117
171 1 0.612653 0.147018 0.408599
305 1 0.873812 0.0993249 0.446931
369 1 0.971551 0.392486 0.467504
218 1 0.468022 0.0751767 0.401307
250 1 0.523918 0.397041 0.507624
323 1 0.909116 0.40805 0.487263
313 1 0.388598 0.301933 0.466507
119 1 0.640334 0.15463 0.560842
251 1 0.152522 0.0153247 0.477928
13 1 0.831014 0.306796 0.539817
300 1 0.196023 0.420839 0.437593
502 1 0.782712 0.450959 0.597687
253 1 0.931979 0.243662 0.417688
415 1 0.0840817 0.103188 0.575105
342 1 0.657608 0.0990471 0.444095
505 1 0.145297 0.0527933 0.587646
260 1 0.803523 0.369581 0.590962
297 1 0.435309 0.291138 0.582713
491 1 0.480195 0.0890851 0.743396
269 1 0.760797 0.178595 0.634234
465 1 0.501177 0.489364 0.638274
238 1 0.00591037 0.000101737 0.770259
73 1 0.23545 0.237159 0.776353
222 1 0.097067 0.431767 0.61979
429 1 0.736453 0.494807 0.703895
109 1 0.779157 0.0503812 0.676761
1 1 0.0298876 0.0679694 0.717442
19 1 0.898895 0.13149 0.704506
87 1 0.789756 0.245025 0.693949
430 1 0.605155 0.169896 0.616903
254 1 0.667347 0.436503 0.67214
107 1 0.654713 0.116365 0.790196
32 1 0.840292 0.472983 0.737205
424 1 0.667841 0.298464 0.650831
168 1 0.705611 0.104697 0.675544
307 1 0.402138 0.129135 0.74253
202 1 0.279365 0.42732 0.625183
473 1 0.440765 0.0545089 0.649308
293 1 0.00697574 0.212477 0.786696
88 1 0.548929 0.157116 0.759026
454 1 0.231762 0.296289 0.727454
336 1 0.238753 0.379545 0.700655
90 1 0.372528 0.0715986 0.682281
381 1 0.0503351 0.179452 0.6308
189 1 0.195819 0.0742276 0.641317
18 1 0.582729 0.316211 0.708011
421 1 0.858931 0.133624 0.774923
403 1 0.952569 0.232077 0.73169
346 1 0.966372 0.222352 0.620956
275 1 0.803334 0.373085 0.762834
364 1 0.0620906 0.286386 0.772673
190 1 0.917246 0.311531 0.713529
82 1 0.819158 0.330142 0.674974
210 1 0.176577 0.299729 0.675424
494 1 0.0469732 0.161436 0.723719
195 1 0.6895 0.248355 0.734008
370 1 0.687872 0.372743 0.664882
433 1 0.634954 0.139533 0.706682
302 1 0.113327 0.260245 0.715903
40 1 0.0476575 0.378504 0.64349
11 1 0.978616 0.0485151 0.670396
103 1 0.800988 0.188635 0.790867
215 1 0.359536 0.156206 0.795736
394 1 0.0332869 0.282938 0.606309
295 1 0.837804 0.13666 0.60595
8 1 0.736237 0.252089 0.819693
450 1 0.520523 0.362304 0.966878
121 1 0.273485 0.0778689 0.829383
418 1 0.822923 0.0112815 0.941442
178 1 0.560253 0.146221 0.954368
54 1 0.358776 0.372203 0.842246
234 1 0.119689 0.166972 0.867929
229 1 0.696816 0.153726 0.934216
397 1 0.800103 0.461682 0.824418
248 1 0.70058 0.404932 0.856303
458 1 0.239897 0.492464 0.88853
347 1 0.12674 0.187728 0.989984
353 1 0.821232 0.0835945 0.894334
464 1 0.521573 0.419483 0.900624
29 1 0.139943 0.250851 0.918897
209 1 0.283362 0.18438 0.893165
422 1 0.46935 0.0231732 0.927216
214 1 0.463249 0.495038 0.991532
261 1 0.47769 0.332999 0.837152
420 1 0.622565 0.34888 0.825119
314 1 0.334931 0.173037 0.939488
256 1 0.6953 0.43746 0.960225
34 1 0.566874 0.227963 0.958514
106 1 0.600605 0.188751 0.835261
153 1 0.976332 0.330566 0.946709
389 1 0.562361 0.476756 0.876709
411 1 0.00594685 0.356465 0.883189
152 1 0.36927 0.108144 0.907435
57 1 0.56937 0.0763369 0.936799
227 1 0.260195 0.0917566 0.902481
211 1 0.602892 0.0220186 0.875978
123 1 0.918104 0.202117 0.838031
129 1 0.748127 0.484614 0.879493
267 1 0.256905 0.261146 0.874555
363 1 0.169446 0.464801 0.909479
98 1 0.670839 0.0411615 0.813298
191 1 0.808968 0.247152 0.923444
460 1 0.31812 0.319187 0.904182
136 1 0.548643 0.29223 0.896178
156 1 0.104591 0.463328 0.857081
467 1 0.441688 0.399124 0.853692
33 1 0.704591 0.0933919 0.872362
378 1 0.031185 0.452689 0.915094
487 1 0.821731 0.0704344 0.810486
432 1 0.631289 0.426193 0.820819
141 1 0.0365764 0.1544 0.844827
6 1 0.857961 0.27656 0.866548
482 1 0.166585 0.249752 0.847834
113 1 0.798754 0.164228 0.940808
193 1 0.653932 0.205022 0.903204
393 1 0.736246 0.332345 0.83005
406 1 0.384789 0.024026 0.86354
4 1 0.300779 0.454214 0.830462
328 1 0.0641125 0.337317 0.812383
131 1 0.220351 0.00046292 0.806208
5 1 0.981186 0.561141 0.048392
142 1 0.546251 0.960753 0.05052
183 1 0.628189 0.974761 0.110871
116 1 0.0937487 0.512822 0.173699
489 1 0.910839 0.528224 0.126331
410 1 0.248352 0.559158 0.111946
198 1 0.209352 0.50645 0.00959448
14 1 0.0859517 0.59374 0.173602
299 1 0.390389 0.627306 0.0212536
437 1 0.0163073 0.92053 0.0443999
27 1 0.180759 0.566121 0.0548532
365 1 0.607948 0.607894 0.19284
208 1 0.744091 0.773966 0.112102
255 1 0.212837 0.816011 0.142043
265 1 0.330889 0.985611 0.0410479
373 1 0.844057 0.715178 0.139858
409 1 0.763884 0.870155 0.0919725
134 1 0.408347 0.866278 0.120594
426 1 0.666656 0.928349 0.059399
48 1 0.0788278 0.87782 0.0266287
66 1 0.843066 0.978486 0.14298
164 1 0.547948 0.953558 0.156494
324 1 0.947888 0.789086 0.164721
485 1 0.856549 0.572718 0.068376
316 1 0.0802036 0.705782 0.0410479
246 1 0.428254 0.725398 0.0537662
130 1 0.585636 0.802268 0.0351424
457 1 0.590399 0.589035 0.0433894
169 1 0.4985 0.837742 0.144188
216 1 0.525133 0.63341 0.0692711
350 1 0.519591 0.773459 0.198738
125 1 0.826745 0.761154 0.0257696
239 1 0.216327 0.729954 0.152858
440 1 0.362352 0.543963 0.167821
108 1 0.841363 0.502241 0.0929052
384 1 0.307218 0.741079 0.149637
442 1 0.914939 0.950923 0.0155766
204 1 0.334438 0.580925 0.0459598
452 1 0.441751 0.859221 0.0432409
105 1 0.550924 0.856268 0.0765116
326 1 0.909127 0.724139 0.0981503
146 1 0.104101 0.826379 0.0941834
395 1 0.00667663 0.89556 0.123542
285 1 0.171949 0.76926 0.0810014
44 1 0.826858 0.625713 0.0155056
192 1 0.728453 0.933271 0.104838
181 1 0.707325 0.877723 0.18684
348 1 0.762767 0.693505 0.0960095
486 1 0.33415 0.518025 0.0140477
139 1 0.4119 0.727911 0.125125
75 1 0.0944741 0.771214 0.335076
144 1 0.115983 0.531734 0.330183
349 1 0.908666 0.516262 0.395606
294 1 0.430317 0.733291 0.28912
366 1 0.228382 0.720911 0.320967
93 1 0.443179 0.894893 0.367565
85 1 0.987481 0.605408 0.366179
327 1 0.522988 0.653145 0.227455
205 1 0.4182 0.594636 0.354586
413 1 0.272238 0.799598 0.382038
137 1 0.580228 0.788037 0.335815
173 1 0.96865 0.564506 0.253461
77 1 0.809949 0.65041 0.261858
427 1 0.343805 0.567272 0.341383
65 1 0.33544 0.745466 0.362439
266 1 0.895297 0.982946 0.271838
91 1 0.0345364 0.587782 0.299292
16 1 0.314019 0.722116 0.226929
188 1 0.128063 0.627593 0.268899
506 1 0.210436 0.573631 0.366228
230 1 0.311159 0.932956 0.249501
509 1 0.394565 0.912315 0.205441
278 1 0.36652 0.751597 0.270389
311 1 0.708584 0.848799 0.257847
20 1 0.766491 0.581113 0.237018
279 1 0.169707 0.650379 0.213866
102 1 0.510236 0.640267 0.329388
292 1 0.43355 0.889395 0.271897
283 1 0.804119 0.791458 0.299018
419 1 0.798969 0.719235 0.228187
194 1 0.218564 0.968057 0.222628
247 1 0.68821 0.923045 0.382565
396 1 0.0252346 0.812416 0.220124
298 1 0.884465 0.626048 0.290569
330 1 0.0331193 0.89382 0.318088
80 1 0.214945 0.516323 0.315247
262 1 0.903022 0.7945 0.293959
380 1 0.627679 0.71866 0.373321
225 1 0.981294 0.871117 0.260413
176 1 0.500171 0.792945 0.296348
242 1 0.24507 0.885919 0.218646
361 1 0.491831 0.79279 0.383834
128 1 0.663753 0.570904 0.219786
179 1 0.845861 0.852064 0.323393
126 1 0.697893 0.765169 0.20806
10 1 0.264425 0.818991 0.276412
496 1 0.182087 0.775276 0.3902
50 1 0.64093 0.851923 0.314189
154 1 0.904238 0.616343 0.363317
68 1 0.044718 0.951866 0.375843
39 1 0.81324 0.862962 0.381526
259 1 0.8637 0.929184 0.215526
257 1 0.868466 0.999874 0.346018
150 1 0.437945 0.831696 0.39937
390 1 0.630631 0.954443 0.200078
83 1 0.0341511 0.902746 0.204615
428 1 0.852075 0.776566 0.515121
438 1 0.666932 0.502315 0.51633
290 1 0.893504 0.638726 0.443298
358 1 0.120723 0.791427 0.44351
21 1 0.15413 0.591698 0.417573
399 1 0.959847 0.907118 0.531516
375 1 0.678233 0.919669 0.470522
84 1 0.324664 0.502302 0.412304
453 1 0.646492 0.640228 0.540022
371 1 0.789201 0.683146 0.468953
476 1 0.00415558 0.878234 0.469154
167 1 0.659075 0.736125 0.541747
3 1 0.882084 0.574929 0.513234
414 1 0.933545 0.68912 0.591236
120 1 0.208638 0.622176 0.490862
115 1 0.287895 0.901449 0.599639
463 1 0.948776 0.787538 0.451587
63 1 0.863724 0.963743 0.407784
401 1 0.361594 0.702406 0.437969
357 1 0.232717 0.92685 0.46606
499 1 0.300332 0.673283 0.468214
455 1 0.787088 0.532721 0.547313
228 1 0.533753 0.651603 0.425301
344 1 0.651002 0.862808 0.421167
289 1 0.474184 0.592019 0.57863
310 1 0.597721 0.68241 0.442771
79 1 0.323345 0.523369 0.481638
127 1 0.995517 0.650733 0.430477
469 1 0.598012 0.524359 0.555839
356 1 0.887998 0.70896 0.491817
232 1 0.903913 0.953909 0.491603
284 1 0.706995 0.574106 0.518009
28 1 0.739154 0.695684 0.520664
425 1 0.871368 0.75667 0.592682
157 1 0.170121 0.560564 0.519559
470 1 0.696574 0.773852 0.483757
383 1 0.422371 0.83441 0.569333
355 1 0.769323 0.804925 0.460351
252 1 0.225015 0.7836 0.539467
56 1 0.336806 0.894288 0.428916
170 1 0.0475875 0.675696 0.542272
174 1 0.232586 0.872755 0.541938
9 1 0.0645326 0.819756 0.490409
155 1 0.436653 0.640172 0.448515
441 1 0.648501 0.966802 0.557395
140 1 0.381098 0.98807 0.500589
385 1 0.382451 0.838723 0.459852
407 1 0.183181 0.758605 0.467094
138 1 0.849862 0.596972 0.577479
312 1 0.0542953 0.800302 0.56252
236 1 0.864444 0.504944 0.475312
184 1 0.0290814 0.601986 0.597679
172 1 0.215459 0.718314 0.591284
446 1 0.477854 0.545549 0.698105
268 1 0.113549 0.600455 0.749733
147 1 0.441605 0.656988 0.601851
431 1 0.816855 0.644096 0.649906
379 1 0.262272 0.582278 0.781384
352 1 0.56195 0.922825 0.657022
360 1 0.926537 0.865408 0.724341
151 1 0.42078 0.629523 0.739557
372 1 0.49609 0.998057 0.753341
387 1 0.203875 0.768812 0.676939
224 1 0.571075 0.989259 0.603047
100 1 0.78051 0.993724 0.738654
17 1 0.912982 0.793107 0.751054
26 1 0.890439 0.55248 0.750704
25 1 0.593395 0.586586 0.603574
162 1 0.473904 0.818087 0.639444
377 1 0.0142536 0.779176 0.67842
149 1 0.176004 0.822701 0.601142
507 1 0.276278 0.505822 0.762709
122 1 0.702836 0.561529 0.717767
212 1 0.908768 0.530717 0.673179
78 1 0.43195 0.764211 0.621199
461 1 0.537416 0.596502 0.75225
12 1 0.0829925 0.606553 0.666608
416 1 0.44694 0.75447 0.792221
334 1 0.371809 0.79282 0.792173
510 1 0.291917 0.567312 0.664015
186 1 0.629951 0.748285 0.704648
274 1 0.718409 0.963528 0.757883
273 1 0.518376 0.884189 0.699297
501 1 0.612655 0.789935 0.782581
96 1 0.463157 0.677297 0.77905
223 1 0.803895 0.71808 0.665992
70 1 0.347599 0.774332 0.679013
240 1 0.599756 0.862618 0.672684
332 1 0.337628 0.850632 0.628658
110 1 0.733475 0.755945 0.68641
124 1 0.365616 0.672632 0.669377
97 1 0.983858 0.712973 0.670156
341 1 0.0182105 0.876502 0.604687
201 1 0.265129 0.698458 0.658201
474 1 0.628181 0.801338 0.601588
466 1 0.741175 0.622368 0.645826
38 1 0.266212 0.661882 0.759246
207 1 0.535594 0.649405 0.638775
503 1 0.0456037 0.725613 0.78499
36 1 0.167694 0.625151 0.795644
143 1 0.531062 0.505685 0.94877
59 1 0.093697 0.989538 0.975981
203 1 0.0611222 0.517288 0.98849
94 1 0.957009 0.698224 0.987202
118 1 0.864793 0.588902 0.879736
402 1 0.911013 0.56489 0.822052
67 1 0.905443 0.783259 0.977703
64 1 0.505923 0.904731 0.812232
45 1 0.299806 0.713668 0.884952
331 1 0.819527 0.587918 0.936225
439 1 0.538428 0.829638 0.861212
304 1 0.19218 0.612857 0.909498
241 1 0.200364 0.790103 0.828012
206 1 0.586198 0.824603 0.938657
374 1 0.481743 0.821601 0.8182
495 1 0.389981 0.878004 0.835663
7 1 0.280976 0.811086 0.858518
479 1 0.687008 0.79568 0.850064
329 1 0.991883 0.888954 0.870719
471 1 0.798076 0.761231 0.859455
280 1 0.701941 0.892327 0.902138
226 1 0.572664 0.596968 0.864993
468 1 0.264773 0.592096 0.896778
354 1 0.34548 0.982112 0.971363
200 1 0.337022 0.646845 0.880068
291 1 0.082399 0.585829 0.932942
53 1 0.325869 0.956503 0.842524
117 1 0.666482 0.948019 0.836721
484 1 0.0289896 0.781044 0.830872
175 1 0.888392 0.775904 0.845818
436 1 0.987251 0.977319 0.980525
71 1 0.386668 0.575562 0.953238
182 1 0.0669154 0.991042 0.816604
49 1 0.521196 0.986292 0.843739
504 1 0.928219 0.848312 0.907461
408 1 0.199881 0.787748 0.952122
235 1 0.161472 0.839921 0.916284
135 1 0.80379 0.939227 0.961516
434 1 0.123978 0.907935 0.957608
423 1 0.606598 0.739787 0.9903
282 1 0.611967 0.543676 0.959933
404 1 0.0262752 0.652624 0.984158
306 1 0.735968 0.867417 0.987713
111 1 0.142492 0.961487 0.81135
443 1 0.552928 0.657896 0.82192
412 1 0.743722 0.729194 0.807834
69 1 0.494431 0.734114 0.995753
