ITEM: TIMESTEP
700
ITEM: NUMBER OF ATOMS
512
ITEM: BOX BOUNDS pp pp pp
0.0000000000000000e+00 1.7235477520000000e+01
0.0000000000000000e+00 1.7235477520000000e+01
0.0000000000000000e+00 1.7235477520000000e+01
ITEM: ATOMS id type xs ys zs
309 1 0.0567267 0.299518 0.17255
57 1 0.571049 0.024945 0.145493
319 1 0.10019 0.102122 0.124596
410 1 0.13092 0.478464 0.0487625
255 1 0.222811 0.0946486 0.0521481
156 1 0.0855823 0.00974059 0.035968
276 1 0.662181 0.483668 0.00751712
107 1 0.621623 0.14647 0.0203613
47 1 0.0559894 0.196851 0.0783096
71 1 0.123067 0.431143 0.195962
378 1 0.91705 0.259075 0.149314
423 1 0.171439 0.470482 0.159468
214 1 0.349618 0.395831 0.0258795
333 1 0.648023 0.145374 0.18123
37 1 0.571305 0.173113 0.135425
396 1 0.867038 0.294124 0.0166607
239 1 0.506814 0.34894 0.0249967
244 1 0.140436 0.181848 0.0205919
397 1 0.87444 0.499481 0.0454734
265 1 0.927502 0.173826 0.139175
407 1 0.162073 0.253134 0.0208249
445 1 0.545977 0.133237 0.0489505
98 1 0.881525 0.00424098 0.0800712
161 1 0.986048 0.141278 0.0606797
94 1 0.0170934 0.0187563 0.0741909
376 1 0.0305338 0.326806 0.00568682
85 1 0.00581083 0.365797 0.178809
486 1 0.362379 0.473432 0.0589314
392 1 0.0606906 0.287112 0.0791757
417 1 0.496819 0.143151 0.191588
233 1 0.805825 0.191544 0.0987946
281 1 0.607184 0.260942 0.149921
504 1 0.848934 0.134091 0.186536
489 1 0.0662525 0.400503 0.110038
92 1 0.417193 0.134361 0.167006
362 1 0.18112 0.0419835 0.100577
406 1 0.202553 0.380618 0.0280609
480 1 0.295609 0.244809 0.187355
328 1 0.67868 0.283569 0.132819
145 1 0.20782 0.457399 0.0357465
511 1 0.72581 0.201937 0.137014
411 1 0.26761 0.453007 0.173809
81 1 0.390598 0.431141 0.182355
229 1 0.752878 0.346072 0.167209
363 1 0.889979 0.249883 0.0631681
104 1 0.582721 0.454399 0.163654
70 1 0.280874 0.349004 0.0149926
325 1 0.406538 0.317226 0.16483
22 1 0.291704 0.216273 0.091356
23 1 0.799695 0.19062 0.199895
377 1 0.78956 0.128901 0.00344637
391 1 0.896786 0.115117 0.297334
13 1 0.629953 0.440732 0.389387
243 1 0.234401 0.397542 0.314079
14 1 0.258858 0.285503 0.230641
264 1 0.89478 0.190826 0.344661
199 1 0.93119 0.0765555 0.238635
298 1 0.0231411 0.377471 0.385705
86 1 0.764735 0.209991 0.319328
157 1 0.0678151 0.233373 0.314516
251 1 0.0517793 0.258986 0.238353
420 1 0.559951 0.476783 0.398242
339 1 0.0995818 0.103117 0.213709
492 1 0.366386 0.190979 0.284904
266 1 0.802693 0.0603961 0.234735
196 1 0.5155 0.34031 0.262297
317 1 0.559153 0.420096 0.233759
77 1 0.95423 0.356767 0.240133
349 1 0.0281473 0.416345 0.304943
355 1 0.689733 0.228432 0.264308
240 1 0.627824 0.147862 0.307994
140 1 0.289763 0.474233 0.364793
164 1 0.542417 0.0756443 0.213044
444 1 0.611705 0.276134 0.248879
220 1 0.860182 0.454042 0.376711
21 1 0.966491 0.324141 0.315127
405 1 0.891993 0.268653 0.299331
488 1 0.418062 0.139765 0.24365
400 1 0.276813 0.169545 0.249216
368 1 0.698449 0.451313 0.313929
213 1 0.748843 0.296474 0.354198
365 1 0.658156 0.354873 0.358755
106 1 0.609088 0.0143572 0.212077
52 1 0.777331 0.455577 0.333752
388 1 0.625238 0.110282 0.247228
61 1 0.885359 0.306027 0.221873
288 1 0.572447 0.0916955 0.363917
42 1 0.779252 0.108478 0.299676
166 1 0.263422 0.10596 0.244446
173 1 0.293898 0.334687 0.3768
31 1 0.594394 0.318529 0.313063
101 1 0.261449 0.0385818 0.268289
481 1 0.827048 0.248113 0.344568
144 1 0.0874344 0.251174 0.387255
454 1 0.527689 0.0438478 0.393626
273 1 0.695129 0.239389 0.392043
493 1 0.295894 0.413932 0.248892
84 1 0.213215 0.345866 0.380856
180 1 0.766153 0.098067 0.396565
277 1 0.812954 0.358228 0.213651
4 1 0.475176 0.328671 0.202376
380 1 0.35897 0.367662 0.205172
477 1 0.122835 0.184754 0.210267
15 1 0.901834 0.00981821 0.202088
287 1 0.919102 0.209125 0.440027
469 1 0.332195 0.433759 0.578127
91 1 0.14401 0.252096 0.486643
483 1 0.153123 0.123022 0.466626
257 1 0.0768177 0.129973 0.468901
387 1 0.922362 0.0316498 0.455011
297 1 0.111638 0.179745 0.418394
386 1 0.942767 0.104189 0.402201
89 1 0.339893 0.366383 0.410635
80 1 0.733353 0.337707 0.51676
307 1 0.432809 0.0870984 0.548915
112 1 0.973484 0.17782 0.536135
232 1 0.0698567 0.160531 0.557964
76 1 0.252893 0.19673 0.456906
320 1 0.743136 0.0941152 0.51303
505 1 0.226031 0.00235421 0.577799
231 1 0.838669 0.202814 0.468753
171 1 0.664258 0.185977 0.417574
95 1 0.916126 0.471314 0.437551
315 1 0.838011 0.170456 0.536107
473 1 0.346629 0.00595 0.509701
72 1 0.373414 0.324799 0.574894
177 1 0.856401 0.427285 0.507991
360 1 0.852519 0.0104324 0.536366
142 1 0.708794 0.351012 0.436256
268 1 5.70286e-05 0.484886 0.542727
38 1 0.312881 0.176764 0.498787
394 1 0.215486 0.122432 0.525246
24 1 0.701039 0.450327 0.451914
427 1 0.15482 0.331138 0.465289
73 1 0.393523 0.153152 0.513884
119 1 0.727995 0.293181 0.576258
286 1 0.378722 0.355755 0.475251
384 1 0.208921 0.399095 0.538374
342 1 0.685857 0.1638 0.477816
383 1 0.144423 0.478029 0.526031
474 1 0.356676 0.419608 0.500615
447 1 0.817627 0.378463 0.523891
498 1 0.936499 0.00812206 0.579726
510 1 0.197368 0.174084 0.58108
451 1 0.800498 0.232779 0.572059
184 1 0.265252 0.496942 0.595618
495 1 0.491561 0.103873 0.57914
100 1 0.735007 0.0878346 0.591427
258 1 0.500613 0.428199 0.588371
512 1 0.673434 0.259395 0.591728
491 1 0.623097 0.201208 0.600791
219 1 0.113064 0.177375 0.613298
206 1 0.46355 0.0269378 0.713563
295 1 0.807568 0.188276 0.662445
272 1 0.492871 0.440916 0.677384
300 1 0.872252 0.325648 0.746825
284 1 0.0480798 0.454118 0.760682
96 1 0.627153 0.00295362 0.704232
224 1 0.696193 0.49901 0.666197
49 1 0.691784 0.178363 0.791974
443 1 0.782872 0.493576 0.703884
430 1 0.665047 0.226847 0.725567
189 1 0.23855 0.274923 0.670216
253 1 0.937903 0.121142 0.706371
467 1 0.331908 0.370181 0.734797
190 1 0.0189833 0.495337 0.622812
269 1 0.874802 0.155826 0.708874
130 1 0.539889 0.155379 0.625878
346 1 0.259885 0.196024 0.700985
424 1 0.473969 0.283187 0.703256
11 1 0.275826 0.0964211 0.787682
209 1 0.415017 0.313334 0.732474
109 1 0.811642 0.102056 0.633515
345 1 0.0613007 0.336693 0.62896
260 1 0.926209 0.371112 0.689286
381 1 0.0800058 0.196034 0.682566
238 1 0.227504 0.118673 0.691767
472 1 0.43987 0.338909 0.633473
267 1 0.29175 0.275773 0.747426
494 1 0.111996 0.370611 0.693845
450 1 0.619611 0.433378 0.78317
74 1 0.568385 0.215984 0.686532
293 1 0.221226 0.381297 0.630239
429 1 0.744353 0.371706 0.731221
421 1 0.0657425 0.285536 0.704923
210 1 0.295822 0.188295 0.782987
136 1 0.807025 0.448668 0.757813
248 1 0.0165185 0.246181 0.761741
302 1 0.989656 0.413031 0.709664
460 1 0.191196 0.396016 0.704134
111 1 0.0942091 0.044532 0.7139
1 1 0.180959 0.0416983 0.704862
357 1 0.951862 0.0259014 0.674983
389 1 0.715915 0.327988 0.665988
170 1 0.359167 0.429845 0.736512
305 1 0.0170309 0.0405611 0.719792
19 1 0.00729278 0.303709 0.61762
497 1 0.827618 0.388279 0.797857
329 1 0.332496 0.0286149 0.779898
40 1 0.138056 0.30345 0.777793
26 1 0.805482 0.0510156 0.916528
245 1 0.815753 0.358517 0.873284
121 1 0.0783249 0.426314 0.906937
87 1 0.832331 0.397533 0.942759
261 1 0.65782 0.299892 0.921026
99 1 0.971408 0.280658 0.97505
457 1 0.570403 0.446852 0.851934
163 1 0.455791 0.297856 0.897108
353 1 0.0147758 0.260734 0.904843
455 1 0.0711967 0.22571 0.858751
43 1 0.620657 0.293049 0.847061
227 1 0.264788 0.00112528 0.885248
274 1 0.84281 0.0385548 0.84489
464 1 0.464705 0.377791 0.963869
8 1 0.66771 0.154872 0.959974
482 1 0.364094 0.23295 0.905708
116 1 0.0431199 0.0325345 0.971158
372 1 0.623305 0.374024 0.840263
289 1 0.121138 0.389671 0.857097
296 1 0.23287 0.267225 0.909912
314 1 0.722847 0.185351 0.918718
459 1 0.531346 0.071557 0.911141
433 1 0.779947 0.291662 0.895636
132 1 0.76814 0.474117 0.934348
426 1 0.863285 0.0472358 0.975033
123 1 0.0307877 0.378682 0.946537
32 1 0.78801 0.120658 0.907415
435 1 0.281438 0.195671 0.933061
475 1 0.907879 0.411778 0.949061
487 1 0.930706 0.04474 0.956889
343 1 0.0065212 0.122304 0.969426
153 1 0.980814 0.45197 0.93705
159 1 0.154376 0.251059 0.850811
449 1 0.430157 0.276801 0.954057
237 1 0.274226 0.121824 0.989701
439 1 0.378397 0.147082 0.854554
503 1 0.962082 0.181231 0.884031
88 1 0.673054 0.0810927 0.820172
263 1 0.193229 0.0137697 0.805169
133 1 0.730289 0.224824 0.855537
152 1 0.596592 0.0467753 0.859322
478 1 0.330436 0.0996131 0.934329
215 1 0.461362 0.085449 0.87352
193 1 0.714876 0.0134856 0.83013
508 1 0.706889 0.425395 0.976413
204 1 0.139816 0.327901 0.993467
6 1 0.933777 0.478718 0.978211
299 1 0.245036 0.261591 0.997318
403 1 0.0324296 0.184054 0.819407
415 1 0.419008 0.0325443 0.801496
68 1 0.850419 0.552806 0.10713
192 1 0.913852 0.877588 0.173253
148 1 0.348615 0.998834 0.14979
359 1 0.964762 0.828557 0.0946104
194 1 0.148508 0.972379 0.0417476
105 1 0.373443 0.764045 0.0444286
18 1 0.339201 0.807631 0.125613
436 1 0.000424345 0.644059 0.0298223
125 1 0.695913 0.867445 0.0559327
326 1 0.960377 0.812902 0.00770271
418 1 0.0404463 0.586931 0.0999263
507 1 0.162812 0.657349 0.197603
55 1 0.100131 0.720655 0.0985459
197 1 0.311984 0.943 0.0870941
350 1 0.732526 0.73477 0.0591379
134 1 0.201396 0.817986 0.0237897
341 1 0.846926 0.841187 0.0814567
292 1 0.47744 0.886517 0.157979
108 1 0.537091 0.57877 0.10503
316 1 0.233799 0.618768 0.00732439
66 1 0.591589 0.988135 0.0673623
20 1 0.684106 0.617442 0.0855873
44 1 0.833931 0.749989 0.136058
179 1 0.786897 0.53992 0.183588
385 1 0.545176 0.815623 0.145008
35 1 0.670806 0.548111 0.0238408
311 1 0.747874 0.821119 0.119891
331 1 0.772358 0.607333 0.0332928
207 1 0.742832 0.92405 0.0251405
334 1 0.291891 0.829276 0.0724678
440 1 0.187511 0.624638 0.0952656
275 1 0.0367444 0.53465 0.0405211
390 1 0.35961 0.538917 0.0212405
462 1 0.61545 0.515926 0.125741
137 1 0.591564 0.851653 0.0526913
150 1 0.498754 0.536505 0.175725
181 1 0.688288 0.691577 0.122819
340 1 0.315612 0.604789 0.19366
366 1 0.141572 0.795562 0.120545
146 1 0.377179 0.610728 0.163635
456 1 0.505868 0.602765 0.0464466
419 1 0.596903 0.599268 0.162136
83 1 0.965222 0.615184 0.177318
113 1 0.788033 0.535977 0.0318039
452 1 0.363161 0.994849 0.0159605
93 1 0.556756 0.780022 0.0324666
509 1 0.511033 0.713943 0.0559919
154 1 0.889147 0.692094 0.133681
7 1 0.294113 0.510656 0.0450088
247 1 0.530968 0.731414 0.158551
262 1 0.0633867 0.702984 0.166664
306 1 0.938003 0.987114 0.0189582
211 1 0.884425 0.943229 0.156459
33 1 0.715612 0.829836 0.199586
218 1 0.437107 0.727071 0.0370913
59 1 0.221121 0.933242 0.185214
58 1 0.28169 0.97763 0.276117
335 1 0.405476 0.653146 0.285222
67 1 0.291787 0.534593 0.300491
413 1 0.892753 0.647708 0.301223
270 1 0.357898 0.916208 0.342682
301 1 0.504767 0.681057 0.279643
322 1 0.240619 0.611594 0.322009
5 1 0.270722 0.665435 0.213018
242 1 0.43227 0.71855 0.256178
271 1 1 0.688904 0.2123
485 1 0.843517 0.504123 0.312914
367 1 0.61445 0.937421 0.23825
191 1 0.860875 0.587996 0.328826
402 1 0.869146 0.639212 0.2284
46 1 0.655148 0.587738 0.296836
409 1 0.84484 0.842863 0.30823
34 1 0.57112 0.559468 0.228219
114 1 0.340472 0.683089 0.279494
361 1 0.344134 0.925846 0.263814
9 1 0.0614168 0.526391 0.359124
217 1 0.114754 0.606255 0.215647
28 1 0.886233 0.797882 0.349543
291 1 0.176615 0.64969 0.348451
230 1 0.45561 0.920723 0.229144
198 1 0.163248 0.722578 0.343256
294 1 0.341755 0.699363 0.367224
50 1 0.555113 0.876772 0.33027
158 1 0.432341 0.557309 0.215188
2 1 0.95513 0.907381 0.301287
241 1 0.199069 0.823078 0.207426
398 1 0.135112 0.867598 0.336034
3 1 0.917692 0.69807 0.345659
476 1 0.0761847 0.662496 0.254465
126 1 0.796842 0.608079 0.243672
225 1 0.11009 0.969525 0.354955
168 1 0.293502 0.838575 0.206696
162 1 0.0908325 0.690977 0.334942
63 1 0.0880464 0.817927 0.385115
414 1 0.767561 0.671026 0.378128
382 1 0.556149 0.804755 0.25551
371 1 0.700053 0.633885 0.35339
283 1 0.772632 0.7786 0.251025
375 1 0.56787 0.727729 0.260293
285 1 0.400198 0.99642 0.244636
290 1 0.875319 0.921023 0.330414
45 1 0.319841 0.631025 0.379088
236 1 0.998236 0.701194 0.363219
41 1 0.10697 0.614952 0.389335
39 1 0.408791 0.849212 0.386997
506 1 0.263289 0.513359 0.221045
183 1 0.674757 0.896107 0.205274
463 1 0.712626 0.624151 0.447981
205 1 0.507288 0.619765 0.526332
330 1 0.289982 0.958574 0.550192
358 1 0.0836683 0.742686 0.593161
165 1 0.175374 0.519628 0.585188
370 1 0.490516 0.535978 0.581873
27 1 0.252831 0.824414 0.498058
65 1 0.318156 0.693782 0.556412
129 1 0.7599 0.715659 0.468463
97 1 0.851131 0.773497 0.57243
490 1 0.418534 0.982153 0.543023
167 1 0.659149 0.99062 0.465957
441 1 0.989122 0.972014 0.450697
30 1 0.792499 0.95337 0.527013
428 1 0.983379 0.61595 0.544591
310 1 0.575687 0.573449 0.477915
60 1 0.398015 0.696681 0.407429
259 1 0.487515 0.682043 0.420544
249 1 0.397435 0.507325 0.482386
25 1 0.776852 0.69636 0.55407
75 1 0.0146158 0.768384 0.434283
324 1 0.779781 0.832087 0.445092
228 1 0.573953 0.763958 0.479078
369 1 0.98864 0.539506 0.490048
188 1 0.0668129 0.977882 0.413547
448 1 0.706398 0.513201 0.499852
79 1 0.4985 0.70964 0.515061
127 1 0.929945 0.821733 0.432191
332 1 0.0936919 0.713387 0.522468
356 1 0.860096 0.835276 0.491416
78 1 0.699611 0.799062 0.478782
438 1 0.497723 0.930706 0.513241
201 1 0.117767 0.641682 0.50021
16 1 0.302721 0.621087 0.556493
308 1 0.664623 0.603675 0.491485
470 1 0.700699 0.968272 0.536742
10 1 0.354049 0.533998 0.426134
102 1 0.212534 0.604715 0.567261
252 1 0.130147 0.904463 0.477415
174 1 0.213521 0.89664 0.508029
313 1 0.317155 0.880428 0.412767
318 1 0.651553 0.759774 0.436589
254 1 0.0476117 0.836378 0.536829
186 1 0.27817 0.755688 0.506447
344 1 0.752559 0.987628 0.42002
279 1 0.443216 0.915442 0.552655
221 1 0.706283 0.504122 0.58226
176 1 0.540205 0.551628 0.409537
399 1 0.781961 0.915079 0.404662
323 1 0.971714 0.525347 0.401453
51 1 0.83921 0.55276 0.672353
432 1 0.878022 0.61307 0.69556
122 1 0.979687 0.576983 0.632164
195 1 0.442542 0.509357 0.675486
304 1 0.354268 0.558011 0.689183
12 1 0.660613 0.756878 0.636963
453 1 0.767451 0.787609 0.610232
278 1 0.712272 0.839101 0.642094
425 1 0.90661 0.695213 0.686589
374 1 0.58844 0.952009 0.729042
120 1 0.497458 0.739718 0.627823
36 1 0.822027 0.918939 0.75268
115 1 0.198803 0.670175 0.761993
354 1 0.403709 0.688526 0.799428
131 1 0.69592 0.961713 0.689223
337 1 0.571871 0.696338 0.76959
458 1 0.368162 0.620654 0.619581
141 1 0.199435 0.949822 0.635771
223 1 0.744169 0.561909 0.675056
496 1 0.0736825 0.796923 0.638645
149 1 0.235124 0.723283 0.715872
234 1 0.232078 0.875668 0.695424
250 1 0.485633 0.594871 0.655208
502 1 0.261963 0.55564 0.685447
364 1 0.17476 0.80075 0.706494
256 1 0.969421 0.623899 0.696721
312 1 0.864943 0.938267 0.679926
499 1 0.547778 0.740214 0.691209
53 1 0.120747 0.971118 0.670744
202 1 0.742621 0.680256 0.618451
135 1 0.126798 0.838207 0.775651
484 1 0.890677 0.757821 0.647864
54 1 0.346775 0.605512 0.767915
110 1 0.735553 0.9935 0.61943
393 1 0.369019 0.500817 0.749999
446 1 0.651851 0.6557 0.761715
64 1 0.517685 0.92991 0.619344
155 1 0.334619 0.849906 0.732712
138 1 0.0213703 0.52431 0.728259
501 1 0.688684 0.628223 0.684463
351 1 0.441437 0.668617 0.619884
69 1 0.52414 0.927927 0.781605
401 1 0.183199 0.574002 0.648015
90 1 0.37037 0.91379 0.744747
62 1 0.459314 0.988632 0.65881
352 1 0.444283 0.962866 0.761308
143 1 0.858565 0.73495 0.960338
465 1 0.122329 0.621511 0.926608
379 1 0.452771 0.7672 0.813236
172 1 0.262769 0.707177 0.877287
408 1 0.247796 0.817055 0.947753
48 1 0.315672 0.939314 0.877399
178 1 0.412362 0.99608 0.952965
461 1 0.676677 0.736061 0.867876
235 1 0.320037 0.543191 0.804193
338 1 0.696413 0.666659 0.829126
321 1 0.753023 0.528587 0.866064
479 1 0.644028 0.841875 0.892642
347 1 0.309896 0.879894 0.934635
128 1 0.57095 0.72892 0.883959
82 1 0.338881 0.568578 0.961517
103 1 0.972227 0.939225 0.886626
160 1 0.249057 0.991231 0.999737
246 1 0.732279 0.834224 0.894644
182 1 0.0992607 0.907783 0.814712
471 1 0.892128 0.862915 0.838643
280 1 0.645694 0.779685 0.810623
124 1 0.43363 0.607266 0.933002
468 1 0.241349 0.576784 0.864516
327 1 0.644414 0.541347 0.931777
151 1 0.313737 0.76854 0.887953
373 1 0.788327 0.788606 0.913738
422 1 0.765527 0.977319 0.923286
437 1 0.152152 0.699843 0.938817
212 1 0.98676 0.641224 0.91515
175 1 0.051375 0.760677 0.990593
117 1 0.518315 0.749657 0.817487
431 1 0.0630142 0.520866 0.908913
208 1 0.564869 0.981008 0.863421
185 1 0.668683 0.907936 0.846843
56 1 0.396141 0.776649 0.894031
434 1 0.0135157 0.85153 0.935491
466 1 0.976883 0.695694 0.970676
226 1 0.724709 0.598941 0.892506
348 1 0.55525 0.585144 0.92797
404 1 0.962866 0.569996 0.889249
303 1 0.893361 0.913046 0.941654
139 1 0.564552 0.66675 0.926594
395 1 0.0270236 0.832251 0.821918
118 1 0.893433 0.806875 0.954623
187 1 0.116158 0.552498 0.8597
169 1 0.406007 0.677379 0.924669
203 1 0.194411 0.551753 0.928046
200 1 0.203813 0.662611 0.869989
282 1 0.796522 0.68683 0.967391
416 1 0.126481 0.771908 0.95442
29 1 0.0203375 0.993196 0.904369
442 1 0.100093 0.968835 0.86078
216 1 0.45574 0.550117 0.982918
147 1 0.413001 0.757627 0.969983
17 1 0.809518 0.970434 0.828045
500 1 0.49386 0.996864 0.955544
412 1 0.835705 0.848625 0.803603
336 1 0.448538 0.610402 0.820665
222 1 0.0837798 0.521512 0.800306
