ITEM: TIMESTEP
1900
ITEM: NUMBER OF ATOMS
512
ITEM: BOX BOUNDS pp pp pp
0.0000000000000000e+00 1.7235477520000000e+01
0.0000000000000000e+00 1.7235477520000000e+01
0.0000000000000000e+00 1.7235477520000000e+01
ITEM: ATOMS id type xs ys zs
441 1 0.806057 0.133201 0.0639416
187 1 0.988338 0.254478 0.0984663
94 1 0.77377 0.313186 0.0896957
40 1 0.209414 0.40489 0.122667
218 1 0.588561 0.0981827 0.0678752
151 1 0.467959 0.350858 0.162259
93 1 0.938426 0.446423 0.0570616
8 1 0.680864 0.384848 0.0116268
17 1 0.924269 0.215935 0.142276
319 1 0.355714 0.197588 0.0769534
249 1 0.949851 0.372752 0.0787484
392 1 0.080859 0.399518 0.0921876
306 1 0.0677438 0.0342314 0.0369197
193 1 0.223009 0.245287 0.0334558
192 1 0.741112 0.152385 0.129217
142 1 0.425803 0.178489 0.109549
490 1 0.52063 0.289152 0.140343
197 1 0.612135 0.183642 0.0180077
96 1 0.664681 0.27459 0.119471
58 1 0.53134 0.109853 0.138941
255 1 0.608409 0.409464 0.0544265
377 1 0.662582 0.201814 0.0867365
512 1 0.886021 0.262725 0.0192125
443 1 0.294756 0.251358 0.0899695
258 1 0.471792 0.223893 0.169236
118 1 0.726162 0.326564 0.149459
474 1 0.399657 0.358187 0.126885
468 1 0.459942 0.104703 0.106325
225 1 0.170304 0.475614 0.155316
77 1 0.927093 0.304754 0.0694929
196 1 0.598124 0.306143 0.151749
469 1 0.477788 0.477619 0.0230586
371 1 0.73806 0.322005 0.0209438
232 1 0.286942 0.388404 0.11403
365 1 0.0172985 0.3932 0.0348661
126 1 0.0874725 0.478904 0.132119
170 1 0.148514 0.356103 0.078336
160 1 0.537464 0.041512 0.0283335
400 1 0.0672353 0.252444 0.0604127
340 1 0.567396 0.468525 0.0126111
380 1 0.36007 0.439915 0.134559
85 1 0.857676 0.196164 0.0662276
158 1 0.600093 0.38266 0.145326
497 1 0.333796 0.321836 0.105863
363 1 0.812088 0.413627 0.102606
211 1 0.144161 0.270202 0.0579552
301 1 0.453126 0.0363433 0.0521621
479 1 0.715933 0.463535 0.0436189
294 1 0.219895 0.031159 0.178637
309 1 0.865287 0.48132 0.0943399
262 1 0.14217 0.0132257 0.171554
321 1 0.794159 0.0645946 0.0124394
163 1 0.532534 0.426275 0.186152
407 1 0.398578 0.499329 0.166552
22 1 0.717584 0.380991 0.196889
286 1 0.436751 0.189756 0.00794416
481 1 0.857747 0.160124 0.226718
86 1 0.0442074 0.328203 0.296597
320 1 0.863507 0.322298 0.379403
341 1 0.658404 0.190659 0.285103
87 1 0.72588 0.223979 0.252417
351 1 0.0354939 0.463764 0.226674
271 1 0.865009 0.247713 0.259101
287 1 0.0810868 0.299401 0.366411
281 1 0.209356 0.0878677 0.324714
70 1 0.526418 0.159218 0.203974
188 1 0.584157 0.147279 0.263875
333 1 0.897911 0.27668 0.32252
277 1 0.987322 0.199652 0.330586
417 1 0.890519 0.0132017 0.249661
89 1 0.976676 0.121536 0.286365
101 1 0.719711 0.455474 0.212987
418 1 0.972907 0.261652 0.282385
366 1 0.910235 0.0967014 0.23883
109 1 0.0619067 0.405784 0.273953
386 1 0.0375137 0.227029 0.390136
342 1 0.697007 0.401568 0.284348
435 1 0.206412 0.0443607 0.37883
405 1 0.0373226 0.0832729 0.327454
464 1 0.610759 0.407089 0.301906
5 1 0.788347 0.335327 0.35048
503 1 0.596466 0.174155 0.334956
116 1 0.474296 0.410674 0.304114
266 1 0.540814 0.417719 0.268962
207 1 0.74957 0.258446 0.341404
4 1 0.421003 0.378341 0.395071
433 1 0.734798 0.387837 0.360568
133 1 0.769226 0.172652 0.202674
108 1 0.43035 0.464979 0.367048
68 1 0.615477 0.438882 0.381531
350 1 0.931985 0.253284 0.211781
16 1 0.850257 0.0444747 0.399821
431 1 0.152031 0.280282 0.493338
273 1 0.90376 0.38075 0.439273
302 1 0.938039 0.392032 0.530764
11 1 0.119567 0.212073 0.498084
67 1 0.396487 0.143329 0.558177
411 1 0.278752 0.371207 0.469035
24 1 0.834347 0.0190689 0.576391
42 1 0.760299 0.16376 0.442442
37 1 0.46845 0.0578978 0.451582
10 1 0.0136327 0.431429 0.509059
470 1 0.727722 0.238397 0.417254
213 1 0.448167 0.135717 0.490128
325 1 0.0316579 0.0965924 0.435762
243 1 0.651056 0.202604 0.456257
257 1 0.701811 0.0546639 0.465572
71 1 0.503304 0.343764 0.415337
235 1 0.32058 0.454672 0.463543
79 1 0.595443 0.199926 0.532973
300 1 0.0747143 0.00594685 0.553534
171 1 0.683561 0.129228 0.44155
420 1 0.470184 0.347979 0.497107
216 1 0.346395 0.284147 0.566493
41 1 0.204093 0.280913 0.555886
355 1 0.6815 0.391596 0.4872
164 1 0.649498 0.378327 0.418141
252 1 0.888114 0.0800475 0.59591
91 1 0.849878 0.447288 0.4379
506 1 0.131604 0.471926 0.523993
311 1 0.748951 0.425081 0.504285
60 1 0.52993 0.0155399 0.438211
462 1 0.518543 0.387768 0.55253
357 1 0.973513 0.181212 0.592002
129 1 0.518786 0.210391 0.489705
241 1 0.522295 0.476905 0.55387
328 1 0.269349 0.321511 0.525684
26 1 0.575613 0.305349 0.414413
165 1 0.880544 0.453198 0.54485
45 1 0.0828742 0.414222 0.553821
307 1 0.0641181 0.171641 0.447245
372 1 0.649241 0.268279 0.54804
14 1 0.359506 0.455931 0.550827
423 1 0.765242 0.46367 0.425829
34 1 0.65899 0.348715 0.55742
368 1 0.630136 0.0458253 0.526525
293 1 0.382567 0.219355 0.590172
391 1 0.827123 0.112854 0.429128
139 1 0.758754 0.428216 0.589241
19 1 0.216035 0.4771 0.550534
393 1 0.223885 0.343306 0.407234
396 1 0.920178 0.31871 0.570657
100 1 0.941403 0.244615 0.572329
322 1 0.570465 0.222042 0.417584
173 1 0.138099 0.323185 0.420608
209 1 0.572223 0.498795 0.416165
421 1 0.00884578 0.00872661 0.595227
146 1 0.0477404 0.0233736 0.448529
467 1 0.934124 0.403815 0.730852
231 1 0.75894 0.137477 0.636356
242 1 0.679419 0.368982 0.696957
113 1 0.166684 0.425568 0.671089
6 1 0.641476 0.438538 0.742012
121 1 0.00699513 0.434213 0.711066
491 1 0.454659 0.114077 0.646041
140 1 0.0757181 0.389939 0.720509
110 1 0.956458 0.188791 0.772575
120 1 0.369295 0.0362945 0.740461
312 1 0.571067 0.0278598 0.630805
152 1 0.767027 0.209207 0.676729
483 1 0.200503 0.236717 0.626669
314 1 0.942445 0.111874 0.798366
446 1 0.696684 0.374218 0.623316
507 1 0.840851 0.423569 0.626743
354 1 0.232567 0.443437 0.623777
453 1 0.8907 0.347422 0.644382
480 1 0.103766 0.0908295 0.767213
177 1 0.660187 0.158807 0.719846
88 1 0.235395 0.252959 0.696276
248 1 0.0504508 0.27636 0.687959
498 1 0.919824 0.313958 0.712539
360 1 0.0895682 0.395754 0.634121
130 1 0.315602 0.291284 0.705725
389 1 0.687429 0.104411 0.660525
64 1 0.081051 0.3201 0.754325
438 1 0.461967 0.325017 0.66985
336 1 0.4443 0.192321 0.692442
112 1 0.328551 0.336246 0.633808
219 1 0.452016 0.252452 0.630496
56 1 0.217384 0.20067 0.758867
220 1 0.827373 0.475787 0.693878
233 1 0.538714 0.101098 0.636562
316 1 0.420784 0.301942 0.751215
373 1 0.681498 0.301584 0.750679
299 1 0.589554 0.204119 0.697829
370 1 0.380707 0.0907768 0.631871
295 1 0.919144 0.249958 0.74397
74 1 0.645109 0.055896 0.611323
494 1 0.118476 0.180389 0.744312
13 1 0.509854 0.36867 0.628583
15 1 0.0401107 0.206061 0.646471
238 1 0.0162552 0.202268 0.727305
245 1 0.710188 0.234846 0.722894
48 1 0.188817 0.0575832 0.750285
215 1 0.458775 0.00248457 0.7439
201 1 0.125341 0.203563 0.66357
149 1 0.0179419 0.498899 0.759716
489 1 0.887149 0.463098 0.754628
205 1 0.314936 0.0914015 0.690209
43 1 0.548793 0.209739 0.769637
488 1 0.572821 0.165833 0.626786
482 1 0.242222 0.108623 0.726295
117 1 0.465447 0.215255 0.770604
413 1 0.160369 0.496969 0.707729
217 1 0.419724 0.372434 0.789902
44 1 0.0257278 0.0578802 0.787579
269 1 0.96156 0.0950773 0.608143
425 1 0.806331 0.0855101 0.609168
147 1 0.321326 0.417904 0.629966
504 1 0.218361 0.185408 0.97159
49 1 0.254209 0.421993 0.917488
275 1 0.94058 0.339399 0.903923
222 1 0.0626469 0.295432 0.833093
280 1 0.016014 0.329523 0.889826
115 1 0.447157 0.147878 0.824124
451 1 0.615321 0.205018 0.840907
461 1 0.615017 0.422162 0.8199
296 1 0.13948 0.203942 0.914031
445 1 0.812796 0.407735 0.929789
353 1 0.337278 0.261728 0.856661
347 1 0.433898 0.0342777 0.889846
169 1 0.0826993 0.139383 0.928962
39 1 0.413968 0.0694998 0.824329
346 1 0.255121 0.253596 0.85844
131 1 0.566878 0.0190411 0.954859
466 1 0.961004 0.477031 0.915051
159 1 0.463692 0.1395 0.901573
511 1 0.247219 0.177558 0.899093
30 1 0.729468 0.0341044 0.882437
157 1 0.201298 0.317814 0.877568
315 1 0.604955 0.356037 0.856237
80 1 0.368519 0.346645 0.841661
379 1 0.807422 0.328499 0.955062
148 1 0.664213 0.0664604 0.855986
214 1 0.283945 0.491542 0.919861
261 1 0.824517 0.0344072 0.837385
465 1 0.692716 0.498736 0.859788
430 1 0.494485 0.18834 0.948477
254 1 0.192513 0.386009 0.895708
276 1 0.641991 0.28887 0.834407
450 1 0.664377 0.137582 0.811368
178 1 0.785794 0.0531488 0.944191
327 1 0.900713 0.40739 0.891299
124 1 0.867817 0.276407 0.928579
415 1 0.587735 0.0173178 0.863243
23 1 0.768243 0.184381 0.861104
457 1 0.755201 0.454507 0.91601
54 1 0.570914 0.187496 0.931323
3 1 0.820299 0.216551 0.893445
119 1 0.0863605 0.095022 0.988371
172 1 0.125005 0.267028 0.882637
190 1 0.875032 0.0908912 0.813295
427 1 0.358746 0.190249 0.998459
114 1 0.282929 0.475923 0.808806
376 1 0.982665 0.483195 0.999376
383 1 0.372302 0.449022 0.808945
154 1 0.964588 0.632219 0.0161466
493 1 0.0121992 0.563751 0.0160985
7 1 0.126197 0.842298 0.0558429
331 1 0.374977 0.651286 0.0808545
410 1 0.475869 0.520944 0.158067
168 1 0.13161 0.803527 0.128934
246 1 0.580085 0.678016 0.117838
290 1 0.588178 0.719268 0.18461
251 1 0.119158 0.637819 0.0703828
161 1 0.305913 0.814784 0.0319272
137 1 0.561254 0.893062 0.00534552
288 1 0.715369 0.919134 0.123387
304 1 0.402523 0.968594 0.0565908
385 1 0.389323 0.92491 0.140165
313 1 0.0501808 0.801072 0.144393
212 1 0.636597 0.521601 0.152892
20 1 0.645123 0.777801 0.166692
485 1 0.00262297 0.776578 0.0802662
274 1 0.630874 0.825104 0.0967482
125 1 0.43753 0.872062 0.167331
440 1 0.251328 0.754002 0.163736
359 1 0.27358 0.764151 0.0900487
452 1 0.68471 0.944584 0.195975
132 1 0.295403 0.603553 0.0406263
492 1 0.0531964 0.574426 0.0961781
332 1 0.511706 0.866188 0.159959
61 1 0.719402 0.518696 0.116128
95 1 0.781324 0.590514 0.14481
326 1 0.870333 0.831564 0.119942
78 1 0.913105 0.606355 0.154785
81 1 0.420032 0.53133 0.0187363
46 1 0.809501 0.884005 0.120376
83 1 0.919976 0.783325 0.0807066
145 1 0.106269 0.982415 0.0931682
416 1 0.51992 0.629404 0.0674136
499 1 0.172147 0.765015 0.181986
179 1 0.734694 0.610319 0.077118
55 1 0.221358 0.61977 0.020715
390 1 0.367943 0.672005 0.164268
444 1 0.578707 0.590387 0.144016
298 1 0.995905 0.596221 0.153578
134 1 0.291571 0.692722 0.199621
432 1 0.555002 0.861136 0.0846563
402 1 0.845328 0.767508 0.0491108
283 1 0.8386 0.926382 0.180175
194 1 0.104288 0.907129 0.0608087
455 1 0.856299 0.556293 0.127507
57 1 0.438688 0.606253 0.0553026
122 1 0.0038597 0.708508 0.00926573
183 1 0.656456 0.804658 0.014056
378 1 0.205563 0.520495 0.199592
97 1 0.0147354 0.851469 0.193763
381 1 0.0212765 0.970182 0.000963043
107 1 0.721327 0.591517 0.00229129
285 1 0.693903 0.808547 0.283493
198 1 0.995955 0.80409 0.316754
1 1 0.802021 0.639516 0.224417
104 1 0.470432 0.614037 0.271811
330 1 0.26689 0.832262 0.365811
72 1 0.987535 0.718857 0.278486
289 1 0.0288673 0.574771 0.22371
279 1 0.495589 0.635548 0.337847
406 1 0.398135 0.635136 0.240426
92 1 0.495848 0.801543 0.300861
234 1 0.329728 0.606911 0.290829
428 1 0.161821 0.724554 0.259767
31 1 0.543362 0.796024 0.232235
265 1 0.359391 0.878369 0.247408
394 1 0.229865 0.706418 0.292783
33 1 0.694371 0.663103 0.342924
204 1 0.918188 0.698329 0.265302
75 1 0.321776 0.926082 0.20212
361 1 0.103664 0.690508 0.307858
76 1 0.226197 0.90088 0.369889
362 1 0.880867 0.648209 0.220887
28 1 0.570594 0.584583 0.34929
229 1 0.624431 0.833177 0.23545
264 1 0.252831 0.96278 0.220688
18 1 0.0678102 0.817636 0.364103
259 1 0.744791 0.803193 0.337599
352 1 0.582427 0.549302 0.27173
53 1 0.103255 0.734731 0.376081
404 1 0.270388 0.641624 0.261999
272 1 0.31248 0.57945 0.369141
123 1 0.641074 0.621145 0.391225
476 1 0.0512978 0.646735 0.262764
127 1 0.741973 0.654579 0.278417
305 1 0.730661 0.729934 0.300518
180 1 0.419601 0.812851 0.316105
9 1 0.242139 0.545526 0.262898
424 1 0.201861 0.91156 0.270023
167 1 0.539806 0.802188 0.37153
270 1 0.216524 0.765501 0.341602
297 1 0.240084 0.530557 0.35371
408 1 0.343433 0.829563 0.315314
186 1 0.975583 0.865411 0.26623
166 1 0.121513 0.96791 0.253624
339 1 0.529529 0.573307 0.215907
454 1 0.86083 0.992123 0.331905
324 1 0.635978 0.91969 0.24409
223 1 0.644039 0.521086 0.235055
230 1 0.43989 0.625163 0.385528
260 1 0.100374 0.879514 0.390069
267 1 0.0618405 0.955253 0.382929
334 1 0.0773583 0.998688 0.310153
62 1 0.907572 0.935736 0.225768
348 1 0.785302 0.821142 0.39943
59 1 0.382261 0.513407 0.414214
210 1 0.182814 0.883594 0.53194
447 1 0.569999 0.521035 0.494866
21 1 0.697726 0.76324 0.489434
27 1 0.104628 0.513085 0.463931
463 1 0.495451 0.75621 0.504263
189 1 0.305057 0.902732 0.509734
510 1 0.0439022 0.828748 0.530524
65 1 0.21044 0.793344 0.529223
240 1 0.158776 0.791928 0.469219
224 1 0.594825 0.584006 0.525834
105 1 0.560905 0.946747 0.419391
221 1 0.216897 0.971628 0.42282
329 1 0.632337 0.723553 0.472105
505 1 0.123698 0.690853 0.59943
367 1 0.424544 0.661924 0.588509
63 1 0.19875 0.540171 0.433565
495 1 0.302146 0.650521 0.590358
496 1 0.787973 0.899227 0.427182
268 1 0.856133 0.743016 0.503229
256 1 0.0328144 0.621798 0.422297
398 1 0.0549036 0.716656 0.555895
369 1 0.632026 0.548102 0.594288
484 1 0.0421942 0.559 0.466475
52 1 0.984664 0.511654 0.496492
472 1 0.259318 0.508352 0.489659
308 1 0.516394 0.852622 0.498854
460 1 0.595597 0.969909 0.499506
317 1 0.626374 0.643895 0.46694
448 1 0.532901 0.868773 0.413734
318 1 0.789895 0.771795 0.47488
51 1 0.846953 0.962891 0.408741
356 1 0.924064 0.53118 0.55419
253 1 0.953833 0.941344 0.59035
502 1 0.974163 0.861114 0.586078
422 1 0.679031 0.979555 0.47273
236 1 0.489641 0.704925 0.572285
38 1 0.432525 0.588051 0.54374
419 1 0.174246 0.747852 0.409569
141 1 0.984434 0.665647 0.599431
473 1 0.241821 0.94021 0.513945
501 1 0.684191 0.848491 0.52403
508 1 0.432354 0.503133 0.563917
184 1 0.0754995 0.683773 0.444617
239 1 0.634252 0.874916 0.589006
199 1 0.102688 0.854728 0.47241
144 1 0.547821 0.732498 0.437643
414 1 0.561181 0.907966 0.557049
2 1 0.717922 0.90773 0.4691
292 1 0.339298 0.778088 0.577712
50 1 0.311025 0.824237 0.521335
388 1 0.431254 0.585127 0.449736
459 1 0.130028 0.92545 0.582762
228 1 0.356387 0.698194 0.567175
191 1 0.924916 0.613398 0.561797
509 1 0.860127 0.671085 0.56132
344 1 0.865951 0.946968 0.589884
338 1 0.256026 0.861996 0.67774
358 1 0.150357 0.781581 0.744637
103 1 0.0743557 0.740668 0.741917
32 1 0.54515 0.744689 0.635984
102 1 0.616035 0.659812 0.749182
206 1 0.119895 0.897393 0.653676
90 1 0.411551 0.522556 0.789996
174 1 0.163061 0.618537 0.629486
310 1 0.254423 0.928233 0.722877
175 1 0.390367 0.902313 0.700045
278 1 0.885324 0.866548 0.72863
195 1 0.192276 0.968116 0.756406
442 1 0.0719298 0.871882 0.73533
69 1 0.471523 0.958868 0.678232
397 1 0.603473 0.508046 0.721428
73 1 0.565441 0.844584 0.722457
449 1 0.583052 0.709265 0.695982
399 1 0.632302 0.580596 0.749256
226 1 0.905725 0.739042 0.760709
155 1 0.910378 0.735234 0.60873
12 1 0.318856 0.820831 0.652255
395 1 0.41651 0.788678 0.767578
456 1 0.853931 0.882465 0.642159
384 1 0.795177 0.583312 0.654371
176 1 0.241288 0.655439 0.650183
250 1 0.512204 0.851837 0.788265
337 1 0.188305 0.756066 0.602812
182 1 0.108085 0.924821 0.795382
29 1 0.941067 0.807593 0.757229
25 1 0.523919 0.966436 0.6129
200 1 0.36586 0.81337 0.721068
162 1 0.799867 0.665229 0.620781
323 1 0.765657 0.529325 0.69617
477 1 0.221663 0.51001 0.764973
429 1 0.891362 0.937923 0.775636
84 1 0.571472 0.520486 0.637326
343 1 0.460707 0.571964 0.792129
458 1 0.119829 0.562169 0.657227
36 1 0.592169 0.816766 0.652016
284 1 0.899682 0.668176 0.789307
436 1 0.0794936 0.547105 0.742222
291 1 0.566364 0.927227 0.766493
237 1 0.178546 0.812028 0.672581
478 1 0.331574 0.96046 0.732616
227 1 0.025263 0.803255 0.74675
185 1 0.535066 0.997756 0.793271
345 1 0.924397 0.528257 0.786218
128 1 0.90034 0.818489 0.621938
349 1 0.883403 0.599428 0.799467
35 1 0.0996555 0.681128 0.799329
412 1 0.624143 0.868976 0.96543
403 1 0.177223 0.714805 0.809558
500 1 0.0531862 0.566883 0.880175
247 1 0.593502 0.533336 0.976393
135 1 0.761012 0.63508 0.935469
434 1 0.151878 0.603777 0.991794
382 1 0.681142 0.896509 0.915134
98 1 0.248068 0.744896 0.823461
156 1 0.710728 0.763384 0.962659
153 1 0.747008 0.508711 0.981071
409 1 0.0424124 0.977285 0.80411
282 1 0.894543 0.634682 0.981895
439 1 0.841719 0.948791 0.871452
487 1 0.519376 0.957158 0.96657
471 1 0.962543 0.914059 0.822057
437 1 0.379506 0.935695 0.984173
82 1 0.294015 0.807725 0.938829
486 1 0.638812 0.654774 0.867103
136 1 0.480656 0.639338 0.8439
66 1 0.137222 0.839701 0.914736
203 1 0.479679 0.787383 0.811996
263 1 0.147418 0.879354 0.843643
181 1 0.641944 0.590702 0.997039
202 1 0.741427 0.932326 0.902756
387 1 0.114023 0.799672 0.98152
375 1 0.663653 0.56448 0.828278
150 1 0.556286 0.657226 0.897824
374 1 0.705326 0.690879 0.900236
364 1 0.290089 0.774337 0.868248
47 1 0.348054 0.858323 0.971546
475 1 0.088508 0.571636 0.954638
143 1 0.836004 0.669237 0.959357
111 1 0.991122 0.507873 0.852094
208 1 0.924976 0.913209 0.892219
244 1 0.980899 0.953716 0.937702
401 1 0.488582 0.704831 0.828102
106 1 0.44067 0.965803 0.941505
303 1 0.0625786 0.723933 0.982411
335 1 0.558381 0.634196 0.989723
138 1 0.331045 0.534602 0.998951
426 1 0.787627 0.743912 0.994563
99 1 0.089013 0.599337 0.806627
