ITEM: TIMESTEP
600
ITEM: NUMBER OF ATOMS
512
ITEM: BOX BOUNDS pp pp pp
0.0000000000000000e+00 1.7235477520000000e+01
0.0000000000000000e+00 1.7235477520000000e+01
0.0000000000000000e+00 1.7235477520000000e+01
ITEM: ATOMS id type xs ys zs
309 1 0.017791 0.3278 0.132259
163 1 0.486633 0.480459 0.0429471
319 1 0.271421 0.193135 0.130548
277 1 0.83815 0.314175 0.0853715
98 1 0.770647 0.0521488 0.043255
204 1 0.324638 0.292689 0.0547156
276 1 0.597612 0.399207 0.0429677
116 1 0.202138 0.167474 0.094999
321 1 0.686547 0.459021 0.0531772
71 1 0.275662 0.382372 0.184823
378 1 0.945469 0.29206 0.135391
106 1 0.641512 0.0507045 0.139976
214 1 0.412448 0.271583 0.0775853
333 1 0.676464 0.232145 0.0602919
37 1 0.545087 0.251206 0.0659737
396 1 0.0356822 0.464014 0.0872295
239 1 0.46917 0.228165 0.0861897
244 1 0.108274 0.152107 0.0537948
104 1 0.806865 0.451452 0.131515
265 1 0.972917 0.198558 0.163524
6 1 0.897127 0.484488 0.0317564
445 1 0.603319 0.317953 0.0326246
407 1 0.168791 0.292817 0.0329414
161 1 0.0144777 0.158443 0.0887643
493 1 0.149319 0.351084 0.0851154
306 1 0.777016 0.0214026 0.115824
506 1 0.281327 0.439138 0.112056
23 1 0.743643 0.188569 0.133551
392 1 0.94445 0.399201 0.0374392
388 1 0.544312 0.0141954 0.146181
233 1 0.823642 0.215851 0.196964
281 1 0.59547 0.211978 0.110229
164 1 0.472789 0.0371411 0.146236
217 1 0.285922 0.301849 0.148203
299 1 0.402733 0.368806 0.0296359
362 1 0.24055 0.116427 0.0972894
462 1 0.615605 0.409789 0.135914
508 1 0.738982 0.405727 0.0643115
328 1 0.809912 0.285757 0.157127
145 1 0.214697 0.396326 0.0545875
511 1 0.709331 0.153136 0.0551816
194 1 0.213207 0.0372298 0.135612
411 1 0.0544365 0.262945 0.1543
229 1 0.769211 0.325302 0.0171704
363 1 0.902683 0.346884 0.0747134
444 1 0.572863 0.189653 0.192131
492 1 0.279011 0.249097 0.195983
391 1 0.99002 0.140845 0.296892
417 1 0.507269 0.154433 0.227688
243 1 0.298166 0.3765 0.256533
14 1 0.139191 0.331423 0.31158
264 1 0.926279 0.359219 0.301593
199 1 0.943161 0.106627 0.248321
92 1 0.442153 0.185075 0.219799
86 1 0.647565 0.134442 0.256666
157 1 0.119863 0.246595 0.334101
251 1 0.0633122 0.15872 0.292877
420 1 0.65687 0.463251 0.351015
488 1 0.371648 0.223987 0.211199
504 1 0.901802 0.17135 0.20321
266 1 0.728379 0.0216567 0.261063
196 1 0.552061 0.325204 0.293145
485 1 0.783357 0.444063 0.233958
77 1 0.992847 0.490693 0.269902
380 1 0.451276 0.449885 0.309403
355 1 0.787834 0.241715 0.255488
297 1 0.276415 0.0657243 0.382402
142 1 0.680275 0.17338 0.31393
323 1 0.890244 0.493341 0.374207
95 1 0.835596 0.425682 0.351899
22 1 0.314063 0.46468 0.326904
21 1 0.958227 0.413005 0.265394
405 1 0.971933 0.349499 0.363346
325 1 0.572218 0.363684 0.229521
317 1 0.644369 0.400403 0.206739
368 1 0.738545 0.3291 0.269555
213 1 0.743261 0.224425 0.314496
13 1 0.680527 0.381273 0.386404
58 1 0.193182 0.0101329 0.255372
52 1 0.740371 0.493746 0.321009
81 1 0.480973 0.392467 0.274124
477 1 0.114262 0.140428 0.253388
480 1 0.17809 0.212006 0.273236
42 1 0.681862 0.0669038 0.22405
34 1 0.710104 0.425497 0.256006
173 1 0.186169 0.330265 0.244441
31 1 0.536994 0.287288 0.365363
171 1 0.631838 0.178053 0.395453
287 1 0.797415 0.162614 0.391202
365 1 0.610317 0.239708 0.393825
400 1 0.186376 0.245068 0.204695
15 1 0.984404 0.0550908 0.214342
91 1 0.202187 0.283942 0.452079
469 1 0.450796 0.391439 0.559176
448 1 0.733529 0.438458 0.517357
483 1 0.186249 0.141051 0.478792
257 1 0.00676345 0.151156 0.509967
62 1 0.427922 0.0108286 0.596328
345 1 0.820832 0.223712 0.490104
386 1 0.934466 0.0287178 0.56055
313 1 0.218446 0.0897775 0.425555
80 1 0.81916 0.480424 0.500423
403 1 0.968178 0.296983 0.599444
112 1 0.101293 0.1932 0.46942
232 1 0.00868102 0.0351613 0.513921
76 1 0.293145 0.266637 0.498166
74 1 0.434726 0.25308 0.51899
84 1 0.266194 0.331168 0.4429
231 1 0.90359 0.129361 0.54738
205 1 0.57205 0.473247 0.480455
481 1 0.762334 0.227154 0.456921
315 1 0.90381 0.221 0.509744
180 1 0.815198 0.0242429 0.458233
72 1 0.456774 0.364473 0.488371
177 1 0.00491412 0.422735 0.565993
369 1 0.056903 0.464549 0.552443
454 1 0.449861 0.146726 0.437962
360 1 0.798797 0.0145273 0.590254
38 1 0.296911 0.235665 0.577844
240 1 0.578355 0.158704 0.466028
24 1 0.705182 0.356367 0.474568
427 1 0.272793 0.418088 0.475696
89 1 0.5283 0.278847 0.43684
220 1 0.843791 0.475273 0.425388
286 1 0.471394 0.340553 0.423055
384 1 0.201803 0.395161 0.496827
342 1 0.580473 0.110783 0.581594
109 1 0.813958 0.0920762 0.592174
273 1 0.78693 0.0944999 0.437733
288 1 0.505505 0.0921523 0.446974
144 1 0.139866 0.254344 0.421767
424 1 0.497668 0.287621 0.584921
73 1 0.381151 0.228131 0.591063
491 1 0.540698 0.179248 0.717621
219 1 0.129112 0.224874 0.643671
510 1 0.202111 0.261961 0.623134
295 1 0.793079 0.0885158 0.711274
320 1 0.63442 0.145258 0.61229
300 1 0.961771 0.380363 0.72592
284 1 0.690586 0.473552 0.764965
495 1 0.49188 0.0998728 0.702534
224 1 0.649963 0.471876 0.622693
49 1 0.690787 0.178436 0.744444
415 1 0.345766 0.119983 0.792959
430 1 0.609901 0.215479 0.711792
189 1 0.264115 0.222327 0.771221
372 1 0.599413 0.336546 0.781224
351 1 0.520081 0.496379 0.621939
503 1 0.806712 0.01593 0.737282
269 1 0.94901 0.240398 0.625101
307 1 0.382444 0.132287 0.642387
346 1 0.228243 0.186208 0.693513
250 1 0.48707 0.420079 0.622824
215 1 0.418627 0.100613 0.733265
209 1 0.376833 0.352231 0.692425
100 1 0.720509 0.123643 0.622734
119 1 0.790251 0.262118 0.600987
260 1 0.90028 0.275953 0.761919
381 1 0.0573764 0.238293 0.690551
238 1 0.189976 0.112746 0.669203
40 1 0.184909 0.464919 0.763535
267 1 0.369167 0.294385 0.654227
222 1 0.0574572 0.483509 0.668837
182 1 0.0728686 0.0179944 0.762216
274 1 0.741744 0.142558 0.705336
451 1 0.83888 0.300046 0.76181
429 1 0.659341 0.467842 0.700771
184 1 0.308344 0.402761 0.675198
210 1 0.377079 0.210004 0.721207
221 1 0.72187 0.497121 0.630584
431 1 0.108323 0.429794 0.781906
302 1 0.0137837 0.338442 0.753556
170 1 0.43328 0.38112 0.749949
394 1 0.184509 0.348891 0.601618
1 1 0.181988 0.0466507 0.609761
11 1 0.217031 0.0723805 0.756237
389 1 0.821692 0.284016 0.668384
490 1 0.458644 0.0961153 0.609852
305 1 0.965128 0.0939558 0.688367
19 1 0.992367 0.367726 0.616219
421 1 0.0843592 0.238175 0.764651
473 1 0.375886 0.0703468 0.612521
357 1 0.924072 0.00381047 0.665631
293 1 0.230289 0.405476 0.681505
475 1 0.0732251 0.395961 0.71833
487 1 0.950918 0.0722282 0.776823
258 1 0.465479 0.254523 0.762441
253 1 0.895148 0.14899 0.634512
248 1 0.992614 0.255808 0.792526
472 1 0.525195 0.334321 0.774332
329 1 0.315516 0.0492999 0.783883
272 1 0.505708 0.310235 0.642754
193 1 0.637716 0.0724038 0.757393
502 1 0.324156 0.478571 0.633228
130 1 0.573784 0.0306799 0.744154
141 1 0.255826 0.0279756 0.640496
497 1 0.717188 0.394009 0.794551
136 1 0.616785 0.404029 0.77905
442 1 0.146196 0.0425947 0.792811
467 1 0.439628 0.49651 0.791384
406 1 0.210447 0.372119 0.988312
245 1 0.699823 0.330681 0.87088
121 1 0.119152 0.321178 0.867918
87 1 0.783207 0.373999 0.86225
261 1 0.564407 0.449144 0.933747
99 1 0.948688 0.202824 0.953149
457 1 0.54737 0.389311 0.882671
450 1 0.547354 0.308262 0.867821
353 1 0.971633 0.146082 0.908868
455 1 0.946625 0.0455928 0.861088
43 1 0.701155 0.321242 0.949625
227 1 0.267856 0.0278172 0.942125
29 1 0.127038 0.0561434 0.897065
464 1 0.412211 0.340429 0.84539
8 1 0.584555 0.210437 0.88282
482 1 0.386821 0.249226 0.932876
422 1 0.6186 0.0395328 0.907821
70 1 0.388179 0.372676 0.923675
426 1 0.779719 0.12176 0.828444
296 1 0.223358 0.18942 0.881145
314 1 0.634003 0.156782 0.895924
459 1 0.482863 0.0869132 0.971771
433 1 0.7647 0.245566 0.89734
132 1 0.808907 0.423706 0.930321
289 1 0.239035 0.427239 0.80478
123 1 0.0727556 0.329434 0.943612
32 1 0.897408 0.0185073 0.815195
435 1 0.2487 0.203505 0.960018
226 1 0.731809 0.473216 0.971769
185 1 0.541358 0.0404689 0.92969
48 1 0.29451 0.0168711 0.852974
4 1 0.448735 0.400725 0.980192
159 1 0.203893 0.282434 0.89174
449 1 0.363076 0.28852 0.866452
512 1 0.757207 0.190697 0.809866
439 1 0.320362 0.134165 0.8828
103 1 0.0301015 0.115626 0.857274
460 1 0.264949 0.287059 0.826295
494 1 0.162983 0.27895 0.810609
133 1 0.721731 0.1791 0.904587
152 1 0.544412 0.115409 0.927897
478 1 0.346869 0.180139 0.967946
376 1 0.00361311 0.299612 0.963398
500 1 0.464687 0.0241868 0.937351
107 1 0.60933 0.296373 0.946825
486 1 0.389742 0.452527 0.930432
263 1 0.17449 0.0608585 0.959434
88 1 0.707878 0.0581691 0.809886
68 1 0.883402 0.663347 0.0933717
192 1 0.922599 0.978798 0.117462
211 1 0.855821 0.981611 0.072149
359 1 0.879506 0.901765 0.104687
489 1 0.0456535 0.513562 0.1436
105 1 0.402863 0.828427 0.0258346
419 1 0.618499 0.574197 0.141352
436 1 0.944599 0.719419 0.057917
125 1 0.710688 0.8568 0.00758712
303 1 0.0943679 0.937661 0.0131735
418 1 0.906404 0.802929 0.102376
507 1 0.288622 0.680857 0.0513158
160 1 0.205483 0.979737 0.0740378
55 1 0.105711 0.879122 0.177837
350 1 0.769726 0.736519 0.0890623
134 1 0.172933 0.899468 0.0625829
341 1 0.810502 0.866038 0.154176
397 1 0.919424 0.603189 0.111544
285 1 0.367052 0.819666 0.177269
148 1 0.357636 0.92825 0.109199
66 1 0.67257 0.912204 0.0551065
20 1 0.740423 0.624062 0.0957214
44 1 0.857356 0.776774 0.139811
156 1 0.120295 0.803131 0.028565
255 1 0.297382 0.972462 0.0831899
191 1 0.77977 0.554989 0.177139
311 1 0.763186 0.822767 0.0954155
292 1 0.574128 0.896171 0.146245
169 1 0.462901 0.655419 0.0938638
423 1 0.283403 0.527148 0.0963876
139 1 0.51855 0.644395 0.00935035
322 1 0.14348 0.641704 0.170791
390 1 0.45933 0.587843 0.128578
348 1 0.438064 0.674326 0.0117171
137 1 0.615024 0.849077 0.115992
94 1 0.0378405 0.889394 0.0650327
181 1 0.701151 0.700183 0.0979065
340 1 0.273465 0.595588 0.0753944
216 1 0.393199 0.558189 0.0379276
146 1 0.334527 0.790756 0.103362
61 1 0.859886 0.542339 0.0750743
410 1 0.113605 0.82631 0.120151
83 1 0.0904377 0.724032 0.133044
57 1 0.703147 0.992403 0.108636
67 1 0.193605 0.584522 0.199061
93 1 0.577667 0.783438 0.147092
452 1 0.431221 0.893859 0.0480008
416 1 0.275944 0.892964 0.0354655
440 1 0.234698 0.743305 0.0200702
35 1 0.56223 0.510045 0.026577
108 1 0.614898 0.510018 0.0997954
114 1 0.286846 0.790257 0.191664
343 1 0.0284237 0.913072 0.183103
47 1 0.0492855 0.994564 0.1965
237 1 0.249306 0.955867 0.000894398
75 1 0.969057 0.786669 0.378044
335 1 0.421366 0.613714 0.244506
101 1 0.239816 0.97609 0.324734
197 1 0.364341 0.999605 0.253473
270 1 0.348999 0.881558 0.337414
301 1 0.67405 0.626094 0.295255
271 1 0.0655511 0.732778 0.213939
5 1 0.160369 0.614649 0.265475
242 1 0.213639 0.855391 0.257846
59 1 0.160931 0.917244 0.254491
60 1 0.413095 0.552929 0.313116
367 1 0.737655 0.948027 0.303354
85 1 0.035104 0.566395 0.216936
402 1 0.809229 0.731539 0.249035
46 1 0.668175 0.701241 0.335949
409 1 0.820387 0.707342 0.328167
218 1 0.427479 0.719669 0.29723
366 1 0.103092 0.81064 0.205345
361 1 0.425203 0.993175 0.301867
385 1 0.504975 0.841232 0.273656
176 1 0.653531 0.640712 0.214654
509 1 0.571349 0.750442 0.211432
291 1 0.145814 0.664808 0.334103
179 1 0.952233 0.661395 0.278429
166 1 0.301062 0.923251 0.360707
349 1 0.973095 0.540343 0.343371
249 1 0.441282 0.612243 0.381374
158 1 0.483858 0.662523 0.25721
2 1 0.990094 0.871862 0.371489
241 1 0.256856 0.704375 0.264423
33 1 0.834882 0.877398 0.235061
150 1 0.563501 0.66829 0.233829
247 1 0.563198 0.796179 0.295834
154 1 0.902381 0.616215 0.205636
225 1 0.965095 0.953878 0.35551
168 1 0.333706 0.926579 0.237024
262 1 0.00131252 0.778635 0.237851
63 1 0.186482 0.825862 0.350015
344 1 0.853176 0.852318 0.360625
382 1 0.597712 0.891381 0.369583
371 1 0.609963 0.64165 0.35129
283 1 0.80586 0.811196 0.289692
10 1 0.332142 0.600748 0.234972
140 1 0.334081 0.538928 0.310793
290 1 0.00827248 0.83175 0.305943
45 1 0.326018 0.67977 0.221642
375 1 0.638766 0.807447 0.323965
230 1 0.44992 0.812225 0.210999
339 1 0.122451 0.969905 0.235378
162 1 0.11409 0.706983 0.389149
39 1 0.443548 0.781452 0.394942
50 1 0.673164 0.874542 0.306588
476 1 0.00940614 0.663937 0.241638
183 1 0.786502 0.94116 0.23089
126 1 0.818304 0.640826 0.211299
259 1 0.573208 0.947033 0.383825
413 1 0.0276308 0.632831 0.366047
463 1 0.748498 0.6178 0.467
438 1 0.371232 0.584481 0.586323
330 1 0.189998 0.872906 0.499457
358 1 0.117537 0.771607 0.558809
165 1 0.268025 0.562017 0.456251
370 1 0.538224 0.527159 0.527558
27 1 0.32168 0.767591 0.481637
65 1 0.279747 0.709138 0.464387
129 1 0.744768 0.628788 0.551932
110 1 0.716373 0.93365 0.532745
41 1 0.0365653 0.582745 0.532497
167 1 0.7519 0.891384 0.45734
3 1 0.906126 0.697572 0.449328
236 1 0.986167 0.703502 0.439936
398 1 0.164985 0.802755 0.469236
310 1 0.624609 0.542988 0.417967
414 1 0.835787 0.589083 0.500062
447 1 0.852484 0.538739 0.543719
498 1 0.865587 0.973893 0.569345
401 1 0.282968 0.526299 0.519294
387 1 0.982168 0.97069 0.489908
30 1 0.702786 0.970886 0.590341
228 1 0.487863 0.685071 0.505424
90 1 0.404505 0.926759 0.558105
188 1 0.955895 0.853671 0.433162
441 1 0.941509 0.973009 0.422494
79 1 0.55476 0.62303 0.565876
127 1 0.919324 0.857537 0.527852
399 1 0.802515 0.726374 0.405348
356 1 0.825996 0.829254 0.512884
78 1 0.628699 0.738411 0.507667
294 1 0.469618 0.75223 0.462109
131 1 0.633221 0.88918 0.591769
16 1 0.397332 0.61176 0.517949
308 1 0.711529 0.547055 0.434239
470 1 0.816564 0.955745 0.430825
383 1 0.206317 0.523806 0.513817
474 1 0.46801 0.598786 0.48656
252 1 0.0378149 0.79118 0.547541
174 1 0.251604 0.818174 0.476553
298 1 0.988716 0.569421 0.409381
318 1 0.558363 0.721322 0.509088
9 1 0.969468 0.595005 0.485559
155 1 0.328694 0.904394 0.575149
64 1 0.431757 0.840071 0.534973
53 1 0.157431 0.967062 0.480028
25 1 0.701083 0.698918 0.571111
28 1 0.890568 0.65116 0.501722
97 1 0.806926 0.777584 0.581242
102 1 0.317401 0.642482 0.462949
111 1 0.134119 0.993872 0.555197
254 1 0.959945 0.801716 0.564501
186 1 0.33338 0.794848 0.545127
505 1 0.188446 0.924667 0.574666
201 1 0.0511414 0.645967 0.589303
332 1 0.136388 0.660977 0.586658
324 1 0.805546 0.820532 0.44777
268 1 0.14528 0.501685 0.546967
96 1 0.547159 0.896316 0.599886
198 1 0.116904 0.8225 0.401024
51 1 0.72668 0.579779 0.648394
432 1 0.823997 0.538479 0.776324
122 1 0.953919 0.57838 0.624954
458 1 0.307889 0.645875 0.653159
304 1 0.310295 0.555485 0.601992
12 1 0.670611 0.789436 0.693981
17 1 0.956544 0.879237 0.745551
278 1 0.648517 0.795857 0.606572
425 1 0.877537 0.692007 0.695838
374 1 0.51811 0.878562 0.66275
120 1 0.5511 0.588784 0.65494
36 1 0.98474 0.812756 0.678237
115 1 0.115301 0.775716 0.691921
354 1 0.261977 0.7115 0.712255
352 1 0.485975 0.964739 0.779672
337 1 0.669556 0.662787 0.726329
190 1 0.132421 0.500477 0.627525
395 1 0.125466 0.941251 0.768851
443 1 0.757786 0.519087 0.737991
496 1 0.160341 0.736162 0.630424
149 1 0.196105 0.742764 0.744766
234 1 0.27624 0.921702 0.661438
195 1 0.391861 0.507858 0.666266
200 1 0.179542 0.624252 0.7625
364 1 0.275737 0.907315 0.735664
256 1 0.91302 0.532058 0.777758
312 1 0.987617 0.963293 0.703517
499 1 0.603292 0.598122 0.704919
412 1 0.0123198 0.802615 0.756859
202 1 0.61007 0.735952 0.741926
135 1 0.998774 0.978728 0.785723
484 1 0.879871 0.726856 0.613345
223 1 0.69308 0.649558 0.633891
206 1 0.512866 0.881983 0.756941
393 1 0.265789 0.62333 0.73624
279 1 0.380873 0.781057 0.62917
453 1 0.736786 0.769243 0.62616
336 1 0.338385 0.617711 0.765163
138 1 0.969664 0.521825 0.680744
501 1 0.693624 0.760744 0.773995
428 1 0.922089 0.652915 0.638852
143 1 0.730947 0.701484 0.914988
465 1 0.135378 0.749122 0.8393
446 1 0.742172 0.674704 0.805603
172 1 0.159716 0.816887 0.859921
331 1 0.757051 0.616492 0.981853
113 1 0.816837 0.572212 0.959321
178 1 0.444851 0.924321 0.978703
461 1 0.686455 0.595036 0.852824
235 1 0.127444 0.624013 0.816099
338 1 0.717266 0.509402 0.889841
147 1 0.302956 0.746024 0.95306
479 1 0.511642 0.826764 0.805575
347 1 0.14863 0.966328 0.849856
128 1 0.603901 0.62042 0.926482
82 1 0.147647 0.635892 0.963118
207 1 0.722389 0.825561 0.929584
7 1 0.412352 0.524259 0.932017
246 1 0.572041 0.763512 0.882253
26 1 0.734274 0.897787 0.892256
471 1 0.0190484 0.824997 0.833593
280 1 0.589962 0.864586 0.845811
124 1 0.295284 0.599179 0.880768
468 1 0.0593026 0.581845 0.849152
275 1 0.0312302 0.612821 0.965063
151 1 0.232259 0.838864 0.888064
373 1 0.671966 0.763334 0.906792
18 1 0.366769 0.794694 0.925681
437 1 0.108427 0.690939 0.889938
212 1 0.947444 0.595432 0.835382
175 1 0.969742 0.73372 0.966131
117 1 0.557338 0.689478 0.914012
316 1 0.147102 0.558742 0.998
208 1 0.552552 0.869338 0.932748
203 1 0.157808 0.711208 0.963955
56 1 0.294219 0.671418 0.892521
434 1 0.103881 0.897706 0.937683
466 1 0.959816 0.63653 0.911069
327 1 0.536404 0.563597 0.976304
334 1 0.244859 0.81106 0.975089
404 1 0.912677 0.699326 0.914788
282 1 0.678845 0.625086 0.923459
326 1 0.0229271 0.778132 0.932726
456 1 0.445438 0.758213 0.994675
118 1 0.0672751 0.820804 0.97781
54 1 0.394842 0.605569 0.815922
69 1 0.490382 0.944407 0.923309
408 1 0.266906 0.927007 0.84064
379 1 0.277851 0.745984 0.87354
153 1 0.848882 0.504091 0.957908
377 1 0.804082 0.993716 0.803995
187 1 0.0260921 0.555165 0.802553
