ITEM: TIMESTEP
100
ITEM: NUMBER OF ATOMS
512
ITEM: BOX BOUNDS pp pp pp
0.0000000000000000e+00 1.7235477520000000e+01
0.0000000000000000e+00 1.7235477520000000e+01
0.0000000000000000e+00 1.7235477520000000e+01
ITEM: ATOMS id type xs ys zs
161 1 0.42314 0.303461 0.0453417
480 1 0.131025 0.365949 0.186035
314 1 0.213003 0.057515 0.0577841
142 1 0.478715 0.103126 0.00853805
234 1 0.220744 0.200212 0.0910669
426 1 0.612346 0.110315 0.0468102
164 1 0.658398 0.110545 0.143874
340 1 0.540439 0.399711 0.0568766
27 1 0.179597 0.496444 0.0616781
263 1 0.408539 0.116086 0.106826
37 1 0.776745 0.0688335 0.0751963
52 1 0.731916 0.109633 0.137208
60 1 0.839288 0.00575579 0.153389
481 1 0.822857 0.214647 0.0979103
325 1 0.88926 0.181274 0.0782819
493 1 0.0217358 0.450065 0.00841047
141 1 0.119523 0.304964 0.0159425
116 1 0.0493419 0.456502 0.103578
472 1 0.260482 0.0738996 0.105932
388 1 0.592087 0.161418 0.171856
104 1 0.149768 0.217856 0.0710235
148 1 0.535583 0.217775 0.166439
163 1 0.461355 0.165949 0.0628858
333 1 0.43678 0.0388284 0.144408
43 1 0.914895 0.355948 0.0721267
500 1 0.566864 0.291707 0.146981
321 1 0.742053 0.468778 0.0474665
322 1 0.470179 0.367963 0.0236792
418 1 0.777682 0.0218676 0.0173441
367 1 0.817016 0.379464 0.0929996
410 1 0.254165 0.481665 0.0693461
196 1 0.866538 0.0799452 0.0888155
286 1 0.0613276 0.405281 0.15421
338 1 0.078396 0.242579 0.0385708
165 1 0.497241 0.480718 0.149594
23 1 0.928075 0.292043 0.158123
315 1 0.732879 0.387893 0.0831283
449 1 0.422796 0.236497 0.0880157
55 1 0.76274 0.310306 0.0915236
183 1 0.546065 0.0703543 0.0207135
214 1 0.435905 0.48103 0.109029
276 1 0.682442 0.301126 0.152719
199 1 0.925091 0.423381 0.0131554
390 1 0.583408 0.0910654 0.189508
33 1 0.671063 0.164188 0.000437697
342 1 0.816675 0.00756179 0.326661
185 1 0.000497745 0.0481662 0.214935
339 1 0.740554 0.363641 0.287074
368 1 0.926352 0.228784 0.330295
351 1 0.686249 0.274937 0.398788
447 1 0.194802 0.317683 0.282668
92 1 0.316726 0.0921745 0.265608
244 1 0.218072 0.128266 0.371126
382 1 0.587998 0.24977 0.256532
220 1 0.772335 0.212952 0.266175
233 1 0.212275 0.0829439 0.210992
350 1 0.521601 0.0398758 0.213702
444 1 0.389585 0.347811 0.373225
87 1 0.756428 0.146886 0.386173
271 1 0.0312061 0.113806 0.26354
51 1 0.463383 0.133329 0.206691
477 1 0.351408 0.0966879 0.205666
266 1 0.739889 0.0960946 0.309074
160 1 0.586228 0.319811 0.223796
277 1 0.205654 0.41724 0.219062
362 1 0.224967 0.188641 0.205019
24 1 0.3569 0.409455 0.331344
270 1 0.0731096 0.0176409 0.264717
323 1 0.733292 0.448372 0.306861
462 1 0.964017 0.152536 0.29479
478 1 0.651251 0.48217 0.260452
166 1 0.311833 0.139628 0.359874
132 1 0.886612 0.408334 0.25721
114 1 0.913122 0.0469058 0.205804
231 1 0.0541474 0.00134296 0.39144
41 1 0.887035 0.479325 0.328025
345 1 0.765582 0.385187 0.365879
93 1 0.430535 0.0160939 0.395559
81 1 0.835394 0.33044 0.280719
15 1 0.153012 0.238177 0.268334
217 1 0.54684 0.170064 0.352115
42 1 0.713752 0.233434 0.217861
243 1 0.542228 0.494487 0.209478
451 1 0.850831 0.346382 0.369458
317 1 0.436035 0.437386 0.337201
301 1 0.486192 0.482325 0.281724
171 1 0.552736 0.241108 0.325417
95 1 0.250798 0.342488 0.22885
309 1 0.0950848 0.329493 0.348067
194 1 0.13733 0.0734163 0.229271
237 1 0.303878 0.233897 0.24386
253 1 0.108644 0.292029 0.291242
400 1 0.240583 0.293216 0.333268
305 1 0.856274 0.186676 0.34855
181 1 0.79904 0.168145 0.322045
257 1 0.847169 0.0681001 0.22059
74 1 0.292318 0.360541 0.356738
303 1 0.314428 0.312901 0.28707
272 1 0.567776 0.0888246 0.3385
197 1 0.903538 0.305649 0.382553
391 1 0.111074 0.176162 0.383948
386 1 0.856056 0.271179 0.220677
369 1 0.27654 0.273916 0.396616
219 1 0.108991 0.315886 0.42479
101 1 0.313406 0.179637 0.448637
58 1 0.276845 0.14447 0.532679
320 1 0.703867 0.0506222 0.473427
343 1 0.281612 0.0572736 0.505678
86 1 0.412439 0.0412885 0.473182
213 1 0.42827 0.150379 0.440697
490 1 0.489962 0.120987 0.477818
158 1 0.542927 0.0770977 0.576145
488 1 0.538705 0.491763 0.4478
236 1 0.849187 0.479148 0.523795
112 1 0.133895 0.425773 0.536488
115 1 0.205958 0.0116636 0.413929
30 1 0.792207 0.254115 0.490963
383 1 0.284337 0.0148361 0.55764
21 1 0.194626 0.397787 0.579366
287 1 0.0617226 0.21583 0.4218
398 1 0.0849012 0.070439 0.430207
264 1 0.286613 0.376315 0.499339
318 1 0.218978 0.315252 0.470316
394 1 0.0318204 0.137764 0.578414
475 1 0.0781232 0.341902 0.52751
46 1 0.743844 0.324604 0.415137
337 1 0.287577 0.400726 0.579853
12 1 0.101014 0.492863 0.506098
308 1 0.796671 0.455705 0.465791
28 1 0.73118 0.429643 0.447718
492 1 0.374142 0.0912857 0.553203
187 1 0.686468 0.204992 0.521228
319 1 0.0589195 0.00714952 0.478703
89 1 0.531721 0.26489 0.534325
405 1 0.572003 0.329938 0.459389
269 1 0.794217 0.163636 0.447426
222 1 0.0161426 0.442718 0.571917
366 1 0.226476 0.435147 0.491097
40 1 0.0332857 0.356794 0.590586
250 1 0.48029 0.442798 0.468458
335 1 0.642715 0.291462 0.53142
19 1 0.959989 0.151665 0.571766
456 1 0.562436 0.061967 0.411591
260 1 0.669723 0.323807 0.596227
313 1 0.356629 0.272913 0.40328
159 1 0.411622 0.48305 0.41166
76 1 0.563046 0.387615 0.427158
168 1 0.679253 0.103001 0.420557
79 1 0.39474 0.499151 0.48265
251 1 0.141855 0.107711 0.402375
62 1 0.484039 0.269236 0.60241
415 1 0.168889 0.15375 0.655141
505 1 0.202008 0.119486 0.704683
111 1 0.283422 0.111268 0.674037
131 1 0.299986 0.0778806 0.769069
379 1 0.224948 0.496186 0.671669
295 1 0.944938 0.121331 0.657619
109 1 0.575555 0.0637282 0.672282
224 1 0.639777 0.00671723 0.73131
8 1 0.66128 0.141635 0.744298
26 1 0.864888 0.471902 0.756053
430 1 0.604903 0.18965 0.670616
510 1 0.272598 0.496515 0.610815
107 1 0.501153 0.110514 0.780671
381 1 0.076554 0.188403 0.606078
424 1 0.608111 0.278714 0.677079
212 1 0.894869 0.47476 0.684018
198 1 0.110444 0.447928 0.706819
202 1 0.251018 0.327736 0.651443
473 1 0.328066 0.215592 0.627119
13 1 0.66451 0.468059 0.618472
88 1 0.278776 0.0228357 0.719035
454 1 0.0757624 0.292337 0.730549
336 1 0.140045 0.24183 0.611422
90 1 0.400008 0.227869 0.694505
435 1 0.901622 0.0475297 0.743773
460 1 0.360702 0.41098 0.744364
512 1 0.443949 0.26938 0.661184
328 1 0.997099 0.373094 0.686727
403 1 0.972082 0.442981 0.662798
297 1 0.422406 0.248663 0.77952
275 1 0.833925 0.273433 0.742171
364 1 0.942142 0.273005 0.777734
190 1 0.828265 0.328314 0.674157
82 1 0.755697 0.338099 0.631908
210 1 0.13448 0.247069 0.726669
498 1 0.928094 0.244702 0.704474
195 1 0.693488 0.228369 0.73388
370 1 0.555663 0.419453 0.721016
54 1 0.326698 0.35097 0.685335
302 1 0.052263 0.434177 0.657109
177 1 0.169442 0.465427 0.725454
450 1 0.430083 0.347595 0.758053
346 1 0.886013 0.272858 0.637676
507 1 0.481439 0.455668 0.692639
433 1 0.655809 0.134135 0.661688
446 1 0.532907 0.413211 0.654483
238 1 0.0205641 0.0909414 0.794882
502 1 0.721966 0.412334 0.648134
4 1 0.516643 0.392528 0.788002
182 1 0.149376 0.0647864 0.783027
421 1 0.755208 0.148594 0.790514
461 1 0.600088 0.467957 0.627705
1 1 0.999166 0.0152414 0.799429
359 1 0.0146216 0.173251 0.890916
7 1 0.094791 0.141535 0.829693
121 1 0.278112 0.0836214 0.835801
180 1 0.0433372 0.00200913 0.980977
178 1 0.520782 0.114074 0.933095
307 1 0.472067 0.168325 0.806925
117 1 0.698227 0.0445503 0.90949
229 1 0.725468 0.0623997 0.976738
274 1 0.741417 0.0437763 0.8235
133 1 0.372916 0.0320797 0.923425
103 1 0.862888 0.149784 0.815005
347 1 0.24547 0.0744122 0.894795
353 1 0.903501 0.0806043 0.99636
392 1 0.943257 0.159573 0.979305
29 1 0.118411 0.187096 0.932322
209 1 0.239829 0.23969 0.842961
215 1 0.305942 0.219212 0.932965
99 1 0.386429 0.339829 0.959905
261 1 0.407643 0.279916 0.895744
420 1 0.566249 0.289815 0.865574
18 1 0.637349 0.234814 0.827204
489 1 0.783961 0.431268 0.992409
34 1 0.52669 0.264207 0.936813
106 1 0.546592 0.125605 0.846965
153 1 0.939805 0.343085 0.874106
73 1 0.241971 0.384537 0.841329
411 1 0.902421 0.414538 0.879232
59 1 0.119366 0.0502394 0.980385
57 1 0.425587 0.0855916 0.955011
227 1 0.163097 0.250123 0.876374
293 1 0.0209845 0.255493 0.822764
123 1 0.0201048 0.351994 0.879715
129 1 0.896141 0.27962 0.91697
267 1 0.295281 0.32375 0.853927
511 1 0.628351 0.275787 0.927848
363 1 0.311208 0.460107 0.994955
191 1 0.823431 0.18588 0.951105
118 1 0.852636 0.48638 0.849817
136 1 0.377941 0.196338 0.866168
245 1 0.169734 0.0714032 0.920475
467 1 0.378479 0.456672 0.921096
376 1 0.382084 0.350216 0.852588
378 1 0.0865992 0.359763 0.846008
487 1 0.905283 0.0268147 0.929084
432 1 0.471836 0.337344 0.838513
97 1 0.0277307 0.490825 0.873574
6 1 0.851078 0.206362 0.86809
482 1 0.16536 0.37178 0.840385
113 1 0.886997 0.0939666 0.887278
32 1 0.856733 0.371479 0.827535
393 1 0.83345 0.328492 0.945153
193 1 0.621509 0.145436 0.831571
497 1 0.174161 0.128066 0.963037
145 1 0.073446 0.4807 0.969119
152 1 0.29333 0.125844 0.958075
256 1 0.790542 0.25891 0.978916
485 1 0.856228 0.497632 0.989621
143 1 0.598225 0.47855 0.976702
98 1 0.616545 0.00984268 0.807814
5 1 0.992854 0.585215 0.0822997
135 1 0.886552 0.932776 0.108098
291 1 0.989147 0.603191 0.013607
188 1 0.00599821 0.520109 0.135346
434 1 0.105671 0.968614 0.0468276
417 1 0.706212 0.614506 0.160365
483 1 0.279423 0.640684 0.17096
14 1 0.192362 0.584787 0.15717
299 1 0.367792 0.692142 0.0320984
437 1 0.0183292 0.956958 0.0949223
296 1 0.289337 0.958395 0.11985
365 1 0.620046 0.712714 0.174357
248 1 0.789142 0.556363 0.103684
324 1 0.844375 0.70865 0.153932
108 1 0.915958 0.510651 0.154752
373 1 0.721764 0.531476 0.144592
409 1 0.884016 0.649085 0.134015
134 1 0.701329 0.9315 0.0534947
2 1 0.206125 0.940559 0.140212
48 1 0.0882392 0.894911 0.10042
206 1 0.642169 0.751698 0.00685676
484 1 0.0609103 0.794482 0.00112123
45 1 0.259351 0.782393 0.0301281
311 1 0.626961 0.861731 0.179761
327 1 0.509993 0.767855 0.109287
246 1 0.493012 0.740492 0.0340801
130 1 0.605688 0.793697 0.157043
457 1 0.563886 0.599229 0.0859176
169 1 0.649016 0.819551 0.0530704
216 1 0.628564 0.631293 0.0811595
44 1 0.825184 0.706973 0.0683659
125 1 0.1539 0.744633 0.134938
239 1 0.130779 0.788763 0.0699955
440 1 0.254458 0.584142 0.108358
69 1 0.424187 0.760948 0.135304
384 1 0.183524 0.920805 0.040756
423 1 0.734425 0.857094 0.0240935
486 1 0.150726 0.719001 0.036458
258 1 0.296976 0.998741 0.041808
105 1 0.389495 0.889577 0.137001
204 1 0.26094 0.838579 0.0809418
294 1 0.52748 0.741611 0.18585
282 1 0.495461 0.580681 0.0856044
66 1 0.816608 0.923443 0.147205
259 1 0.907964 0.852257 0.128706
31 1 0.669898 0.521289 0.0236253
452 1 0.612716 0.990121 0.0633655
75 1 0.150676 0.6605 0.308291
144 1 0.134904 0.612858 0.255721
358 1 0.0516932 0.690814 0.321131
448 1 0.0526395 0.600164 0.266835
285 1 0.173733 0.93165 0.226469
255 1 0.165295 0.818941 0.201423
85 1 0.963561 0.590987 0.358189
349 1 0.912944 0.561846 0.294252
139 1 0.272871 0.736296 0.379252
281 1 0.623754 0.861684 0.27713
137 1 0.712251 0.873994 0.259396
35 1 0.605975 0.551017 0.312925
77 1 0.744563 0.536913 0.334278
427 1 0.460274 0.55931 0.355683
459 1 0.720258 0.505415 0.232799
173 1 0.866751 0.590418 0.222759
91 1 0.0588118 0.547272 0.325112
395 1 0.108107 0.862598 0.259901
47 1 0.0428128 0.844247 0.376868
83 1 0.0147502 0.76162 0.23671
230 1 0.265043 0.83859 0.338125
509 1 0.290748 0.913096 0.353847
278 1 0.500375 0.663562 0.282009
413 1 0.351227 0.811782 0.395278
20 1 0.735537 0.631983 0.292514
39 1 0.907584 0.892857 0.365207
102 1 0.465165 0.718726 0.313805
292 1 0.500488 0.992147 0.312095
283 1 0.871672 0.749255 0.255593
419 1 0.670364 0.709691 0.312276
445 1 0.622604 0.563332 0.24659
192 1 0.882744 0.841143 0.219821
396 1 0.969764 0.828523 0.347266
298 1 0.831823 0.682625 0.26269
330 1 0.0349171 0.834297 0.280627
80 1 0.227711 0.612866 0.224922
262 1 0.894913 0.842898 0.319327
288 1 0.555829 0.919088 0.316477
326 1 0.0922341 0.724105 0.206417
176 1 0.342957 0.901042 0.276323
242 1 0.278599 0.769985 0.306789
361 1 0.385378 0.830693 0.323989
128 1 0.531243 0.610873 0.358795
61 1 0.878474 0.509008 0.221478
126 1 0.700047 0.776095 0.316549
10 1 0.154464 0.743162 0.278612
496 1 0.182892 0.671121 0.392461
249 1 0.603652 0.509625 0.381118
154 1 0.83339 0.525949 0.355016
84 1 0.28196 0.575821 0.395101
508 1 0.976882 0.967449 0.385741
50 1 0.688269 0.704323 0.388227
65 1 0.446689 0.679628 0.224135
428 1 0.883413 0.748496 0.503045
150 1 0.388544 0.985037 0.541789
290 1 0.766714 0.555062 0.409061
56 1 0.295896 0.900712 0.42262
157 1 0.112966 0.574539 0.527626
68 1 0.952986 0.860136 0.485438
375 1 0.56691 0.95561 0.474335
300 1 0.347271 0.550598 0.464582
453 1 0.65806 0.793687 0.424568
371 1 0.774571 0.867681 0.570943
476 1 0.21324 0.758517 0.439433
438 1 0.623161 0.54573 0.466187
3 1 0.876226 0.577638 0.505266
179 1 0.942255 0.613605 0.433204
225 1 0.0454483 0.731591 0.426359
414 1 0.814698 0.719403 0.533117
463 1 0.930577 0.678143 0.453132
63 1 0.899058 0.904542 0.44199
401 1 0.191849 0.673024 0.471317
380 1 0.367235 0.75735 0.504017
499 1 0.218341 0.697972 0.538759
455 1 0.700599 0.563833 0.585679
228 1 0.466917 0.708931 0.454983
344 1 0.522469 0.990271 0.520654
289 1 0.482366 0.624991 0.446586
310 1 0.523776 0.748547 0.465683
138 1 0.673656 0.62929 0.533614
127 1 0.0286763 0.701479 0.591435
469 1 0.580803 0.61257 0.48396
356 1 0.766467 0.787397 0.54495
232 1 0.990444 0.89428 0.56047
284 1 0.709222 0.586928 0.449774
506 1 0.195062 0.595873 0.4234
425 1 0.790221 0.644055 0.531807
474 1 0.555289 0.879053 0.45086
470 1 0.698611 0.893905 0.504649
78 1 0.273424 0.767379 0.538542
205 1 0.339996 0.724681 0.444636
247 1 0.601516 0.829838 0.403385
72 1 0.463866 0.554987 0.429413
25 1 0.611472 0.758441 0.521716
332 1 0.356281 0.916026 0.570451
9 1 0.185916 0.820534 0.483083
155 1 0.320959 0.630287 0.451316
441 1 0.680391 0.954687 0.453568
140 1 0.14534 0.951333 0.446298
385 1 0.257455 0.834456 0.557322
407 1 0.091109 0.805893 0.475658
357 1 0.22734 0.881553 0.479272
167 1 0.632204 0.841296 0.533778
218 1 0.455092 0.970128 0.499768
119 1 0.71777 0.987059 0.400301
94 1 0.0770588 0.570333 0.787396
268 1 0.256004 0.550814 0.756127
147 1 0.420264 0.626487 0.6184
100 1 0.655101 0.923537 0.724364
120 1 0.246081 0.658287 0.612909
352 1 0.469895 0.946435 0.703216
360 1 0.864946 0.622189 0.670742
151 1 0.386562 0.595118 0.715886
184 1 0.0614733 0.584615 0.702174
387 1 0.210827 0.645315 0.704129
431 1 0.762657 0.593794 0.618591
397 1 0.0140851 0.543864 0.768688
17 1 0.967424 0.623765 0.729045
399 1 0.986946 0.853033 0.633876
402 1 0.85199 0.554647 0.626489
312 1 0.11598 0.837312 0.793117
36 1 0.116006 0.62931 0.68254
149 1 0.0446813 0.758884 0.795375
170 1 0.0430479 0.651165 0.642754
122 1 0.626169 0.558069 0.705141
174 1 0.314501 0.879374 0.6163
70 1 0.353253 0.751394 0.626873
11 1 0.898575 0.979019 0.786315
495 1 0.354419 0.863752 0.748688
372 1 0.350981 0.980796 0.729789
334 1 0.339697 0.829622 0.680744
458 1 0.30607 0.660103 0.721784
186 1 0.450097 0.63759 0.677017
416 1 0.288204 0.736847 0.684294
273 1 0.484106 0.863658 0.716483
64 1 0.664236 0.838997 0.759499
96 1 0.529299 0.62322 0.688577
223 1 0.737895 0.601749 0.685971
443 1 0.557462 0.601157 0.752783
465 1 0.32376 0.626038 0.607162
252 1 0.291837 0.944741 0.64304
110 1 0.824309 0.674731 0.747644
124 1 0.375944 0.55198 0.640459
355 1 0.904152 0.885774 0.636608
172 1 0.139468 0.748488 0.786705
201 1 0.300657 0.756049 0.788117
429 1 0.68622 0.563061 0.7544
466 1 0.765268 0.61335 0.770854
471 1 0.875232 0.742117 0.776721
175 1 0.976016 0.702332 0.783224
341 1 0.992429 0.951942 0.604281
491 1 0.428556 0.996744 0.70213
162 1 0.573067 0.815349 0.789473
207 1 0.621268 0.80015 0.600245
146 1 0.983213 0.675009 0.988277
156 1 0.194778 0.509404 0.917253
203 1 0.130513 0.665253 0.934821
464 1 0.30675 0.509567 0.912991
254 1 0.587202 0.573246 0.811618
422 1 0.447853 0.843668 0.851827
67 1 0.986123 0.558548 0.882066
503 1 0.0696705 0.912468 0.920312
221 1 0.52256 0.554919 0.919446
331 1 0.894608 0.513951 0.930814
439 1 0.5198 0.76753 0.980882
304 1 0.173753 0.565293 0.834347
241 1 0.184887 0.852506 0.862748
404 1 0.133474 0.526014 0.976126
374 1 0.545031 0.829327 0.908454
442 1 0.973213 0.992956 0.888823
406 1 0.189505 0.87667 0.949239
316 1 0.232379 0.671426 0.832746
329 1 0.0476266 0.713114 0.931418
279 1 0.315944 0.653539 0.98353
412 1 0.836082 0.823548 0.818748
226 1 0.596707 0.565417 0.895216
240 1 0.621778 0.68494 0.882678
354 1 0.262815 0.903947 0.891973
200 1 0.383282 0.719195 0.906598
501 1 0.56737 0.729801 0.829344
211 1 0.582271 0.960028 0.851822
377 1 0.949309 0.737888 0.931309
494 1 0.964348 0.917635 0.851969
306 1 0.0307342 0.808312 0.854489
436 1 0.863146 0.800458 0.959241
71 1 0.417263 0.541144 0.899218
189 1 0.17289 0.912553 0.840069
49 1 0.52708 0.879795 0.845727
504 1 0.922873 0.680075 0.855996
408 1 0.183259 0.689848 0.881115
235 1 0.215524 0.784402 0.942606
265 1 0.299178 0.996196 0.916843
208 1 0.858827 0.659166 0.995978
38 1 0.357521 0.737918 0.831481
280 1 0.685182 0.768628 0.936528
479 1 0.780766 0.816704 0.864222
16 1 0.281886 0.692457 0.90582
53 1 0.392632 0.867694 0.802346
389 1 0.629157 0.621797 0.955621
468 1 0.445867 0.662498 0.938256
22 1 0.462847 0.53502 0.982857
348 1 0.817293 0.7387 0.997212
