ITEM: TIMESTEP
900
ITEM: NUMBER OF ATOMS
512
ITEM: BOX BOUNDS pp pp pp
0.0000000000000000e+00 1.7235477520000000e+01
0.0000000000000000e+00 1.7235477520000000e+01
0.0000000000000000e+00 1.7235477520000000e+01
ITEM: ATOMS id type xs ys zs
390 1 0.582321 0.491277 0.163109
193 1 0.688525 0.0187627 0.0430348
319 1 0.986518 0.0326009 0.146579
299 1 0.200364 0.256803 0.0452772
255 1 0.281849 0.272509 0.0878228
435 1 0.469925 0.268643 0.161456
452 1 0.444474 0.118135 0.0197581
166 1 0.261138 0.104941 0.0842964
197 1 0.365544 0.00911423 0.0538827
275 1 0.915023 0.493261 0.0377248
378 1 0.0575529 0.304079 0.0650074
70 1 0.267158 0.451418 0.0415164
440 1 0.144756 0.407998 0.130753
333 1 0.685789 0.192255 0.153303
192 1 0.813264 0.0298177 0.0369001
317 1 0.617022 0.345784 0.144174
196 1 0.624914 0.414845 0.152543
34 1 0.486532 0.395166 0.038029
23 1 0.797772 0.231441 0.156859
265 1 0.0669425 0.145563 0.0858944
407 1 0.163755 0.185977 0.0528942
445 1 0.673046 0.285403 0.12275
467 1 0.133613 0.310336 0.0686524
161 1 0.126731 0.17528 0.132981
426 1 0.593155 0.1304 0.167265
81 1 0.397432 0.392666 0.151932
8 1 0.700767 0.268398 0.0409367
158 1 0.426808 0.312506 0.104065
392 1 0.908832 0.362533 0.0511957
487 1 0.718703 0.00920845 0.109724
163 1 0.389769 0.472098 0.163369
22 1 0.352327 0.278521 0.0688826
504 1 0.851142 0.174692 0.156043
160 1 0.389237 0.0266926 0.127236
490 1 0.266923 0.16798 0.0353506
105 1 0.560056 0.023303 0.188801
406 1 0.318026 0.415835 0.0837537
71 1 0.197749 0.364752 0.168695
455 1 0.93159 0.314411 0.174855
84 1 0.277533 0.345344 0.147263
362 1 0.922608 0.0692773 0.178631
188 1 0.844836 0.00625148 0.113323
266 1 0.834756 0.114681 0.0840033
157 1 0.99609 0.328079 0.0871065
47 1 0.0328059 0.0717863 0.0750836
468 1 0.408287 0.120442 0.138648
116 1 0.00205573 0.0219611 0.0227689
85 1 0.900103 0.248005 0.183133
281 1 0.419947 0.352337 0.295316
229 1 0.836372 0.205304 0.319367
18 1 0.280855 0.492449 0.292678
462 1 0.809904 0.384843 0.339873
264 1 0.128195 0.135513 0.220185
283 1 0.896155 0.0754936 0.276887
298 1 0.032161 0.401795 0.311242
447 1 0.805059 0.469544 0.394122
394 1 0.236351 0.11855 0.374566
251 1 0.143433 0.408808 0.228622
95 1 0.716194 0.468151 0.222964
417 1 0.307865 0.247008 0.251908
492 1 0.369209 0.401588 0.31713
101 1 0.35835 0.18084 0.267113
290 1 0.557757 0.00617828 0.342132
244 1 0.213016 0.160885 0.26363
77 1 0.812887 0.373453 0.218348
9 1 0.080718 0.464538 0.389509
423 1 0.197282 0.329512 0.278217
473 1 0.244246 0.00335019 0.287081
339 1 0.157736 0.251837 0.244012
164 1 0.392627 0.158719 0.201989
277 1 0.826991 0.281308 0.209991
220 1 0.979593 0.417499 0.389742
21 1 0.799213 0.447994 0.295301
405 1 0.981701 0.151414 0.299192
488 1 0.431186 0.191973 0.389434
4 1 0.337896 0.366281 0.217835
381 1 0.178484 0.189411 0.331273
477 1 0.0301184 0.159346 0.355504
365 1 0.694407 0.431117 0.313467
148 1 0.501075 0.13956 0.388471
411 1 0.303465 0.372765 0.332383
377 1 0.79904 0.084263 0.285345
221 1 0.690184 0.383818 0.38983
288 1 0.672851 0.150678 0.29575
42 1 0.799255 0.123642 0.3618
493 1 0.0532134 0.390461 0.21743
328 1 0.800356 0.316503 0.330823
31 1 0.653635 0.11465 0.381629
380 1 0.268205 0.29502 0.338055
444 1 0.436896 0.28567 0.293499
240 1 0.517556 0.06139 0.354209
454 1 0.69491 0.0441044 0.311524
257 1 0.0296411 0.0766409 0.362795
297 1 0.0991469 0.270464 0.348991
427 1 0.157083 0.321743 0.369501
330 1 0.176137 0.0485741 0.330388
107 1 0.535001 0.096401 0.220801
325 1 0.440505 0.0908546 0.200615
37 1 0.701617 0.123315 0.208517
309 1 0.902571 0.397279 0.205198
180 1 0.750289 0.0108668 0.360864
481 1 0.818506 0.0260952 0.388826
320 1 0.856159 0.206097 0.38893
204 1 0.0810592 0.208659 0.226019
106 1 0.69402 0.0373084 0.226793
61 1 0.938408 0.159685 0.204732
104 1 0.643024 0.499811 0.32299
287 1 0.912105 0.294636 0.491583
92 1 0.419905 0.274393 0.421702
91 1 0.956546 0.276338 0.432293
483 1 0.206963 0.147289 0.596259
267 1 0.308486 0.0456074 0.426244
213 1 0.486953 0.401461 0.440781
429 1 0.751112 0.1769 0.596901
232 1 0.028636 0.255842 0.408709
89 1 0.32485 0.188981 0.571084
64 1 0.63869 0.237459 0.584823
307 1 0.467267 0.0905774 0.569674
112 1 0.811908 0.329832 0.488635
223 1 0.816252 0.465943 0.474912
86 1 0.974771 0.0352451 0.439332
293 1 0.334586 0.0284586 0.552347
506 1 0.310568 0.394604 0.415843
400 1 0.317141 0.242716 0.448147
171 1 0.397001 0.101639 0.553714
100 1 0.0235126 0.106294 0.473019
315 1 0.824437 0.175272 0.524161
389 1 0.772218 0.250626 0.500776
67 1 0.243917 0.421965 0.477485
177 1 0.842398 0.402863 0.518216
491 1 0.56032 0.211108 0.578208
142 1 0.574344 0.347244 0.455362
322 1 0.277319 0.465529 0.55772
472 1 0.374789 0.484594 0.469996
495 1 0.516841 0.0194208 0.468189
24 1 0.632731 0.338806 0.408585
355 1 0.603003 0.190146 0.415976
243 1 0.275645 0.151438 0.442782
489 1 0.104422 0.412837 0.456099
286 1 0.348897 0.240088 0.520053
14 1 0.480073 0.305423 0.465025
342 1 0.534206 0.137805 0.523138
329 1 0.402293 0.0391652 0.442391
72 1 0.290823 0.345482 0.490732
5 1 0.968669 0.360211 0.446464
144 1 0.0101386 0.488384 0.516965
453 1 0.767164 0.0388257 0.54887
460 1 0.938552 0.367581 0.539727
110 1 0.793587 0.0871613 0.59482
345 1 0.00804932 0.4164 0.552446
273 1 0.545486 0.260699 0.450642
109 1 0.879402 0.120916 0.569676
140 1 0.18053 0.401518 0.428592
189 1 0.230669 0.160606 0.521273
357 1 0.0652749 0.0556505 0.524525
248 1 0.0560497 0.0967139 0.596364
231 1 0.796108 0.267494 0.428589
323 1 0.00875755 0.479955 0.428967
393 1 0.445696 0.361159 0.687723
131 1 0.650002 0.0756377 0.709488
237 1 0.484529 0.0364172 0.790745
295 1 0.81306 0.224409 0.718589
508 1 0.764814 0.480168 0.78899
54 1 0.367054 0.392375 0.717775
438 1 0.527218 0.128894 0.625436
96 1 0.543592 0.157851 0.790362
449 1 0.632544 0.47606 0.692856
19 1 0.112962 0.402723 0.602318
159 1 0.128482 0.24671 0.734456
430 1 0.652174 0.247752 0.745511
62 1 0.643072 0.00816254 0.759674
253 1 0.0836042 0.0967963 0.667431
241 1 0.388924 0.0768443 0.702709
512 1 0.815657 0.341572 0.641463
269 1 0.970153 0.0838649 0.607646
130 1 0.675352 0.276541 0.681227
45 1 0.261937 0.484069 0.63072
443 1 0.878836 0.284258 0.744351
11 1 0.210347 0.0341475 0.672389
451 1 0.754297 0.276478 0.661323
210 1 0.201221 0.0216956 0.771133
53 1 0.0646137 0.00208583 0.61523
354 1 0.547612 0.488292 0.780658
457 1 0.500414 0.288761 0.720044
215 1 0.566542 0.119162 0.697213
470 1 0.944186 0.14636 0.631268
372 1 0.67625 0.487964 0.639381
173 1 0.190664 0.0889242 0.648681
121 1 0.129362 0.375859 0.780139
300 1 0.970775 0.175206 0.783568
415 1 0.453435 0.0169626 0.712062
503 1 0.885172 0.0687462 0.744554
421 1 0.13837 0.0283032 0.726281
119 1 0.771005 0.404586 0.645615
43 1 0.644104 0.382403 0.67798
138 1 0.0786891 0.443706 0.766242
302 1 0.169969 0.35306 0.654518
296 1 0.15857 0.168112 0.743455
17 1 0.798034 0.157447 0.771631
219 1 0.348121 0.0515515 0.642636
245 1 0.876874 0.334281 0.679413
276 1 0.732348 0.423376 0.714762
383 1 0.105602 0.47902 0.604194
146 1 0.471016 0.254804 0.793698
274 1 0.830865 0.0201005 0.712622
187 1 0.931066 0.415581 0.740642
80 1 0.657919 0.370391 0.605963
74 1 0.593468 0.221108 0.799188
216 1 0.572673 0.396281 0.917237
475 1 0.739278 0.498599 0.919352
374 1 0.770927 0.040745 0.864984
87 1 0.751979 0.372041 0.913567
124 1 0.586278 0.353966 0.850699
99 1 0.909492 0.390763 0.921036
396 1 0.0503613 0.193324 0.804653
363 1 0.733904 0.287314 0.899222
353 1 0.952475 0.322499 0.873119
474 1 0.204581 0.481501 0.859573
36 1 0.768333 0.118089 0.836848
376 1 0.928615 0.452329 0.964363
261 1 0.713008 0.207975 0.978897
424 1 0.234624 0.350508 0.916225
511 1 0.455672 0.248527 0.925835
482 1 0.419868 0.0509631 0.835572
40 1 0.121451 0.345248 0.870743
439 1 0.729317 0.140392 0.927625
289 1 0.0263501 0.351988 0.912787
336 1 0.543432 0.433385 0.834753
170 1 0.18497 0.378605 0.841717
480 1 0.428985 0.0246072 0.927311
433 1 0.861401 0.383538 0.851638
233 1 0.518039 0.223268 0.915847
209 1 0.213028 0.405917 0.972723
1 1 0.0222625 0.117915 0.816259
32 1 0.791865 0.430333 0.853692
133 1 0.672983 0.0595467 0.969431
346 1 0.124028 0.15963 0.809772
431 1 0.0650759 0.448926 0.857333
410 1 0.172846 0.468698 0.946303
478 1 0.366303 0.117952 0.839726
49 1 0.713352 0.216978 0.893346
314 1 0.46263 0.130478 0.9508
464 1 0.513173 0.442441 0.960438
26 1 0.610575 0.0580007 0.914606
497 1 0.925458 0.357413 0.806304
88 1 0.369742 0.209727 0.837086
238 1 0.11669 0.0521266 0.818893
235 1 0.437947 0.434308 0.826495
58 1 0.398361 0.0378078 0.999753
260 1 0.0764357 0.273372 0.80744
403 1 0.934862 0.0818025 0.800134
404 1 0.0809097 0.538299 0.159726
466 1 0.852931 0.543093 0.0301074
239 1 0.560625 0.501273 0.00146254
218 1 0.454602 0.865785 0.00995296
434 1 0.00493191 0.648694 0.0794835
194 1 0.214607 0.953177 0.0746251
59 1 0.156988 0.796936 0.153017
247 1 0.431098 0.653862 0.135437
125 1 0.459323 0.825664 0.06006
98 1 0.0414892 0.843487 0.0986151
301 1 0.547628 0.51133 0.0965399
82 1 0.141333 0.559725 0.0565696
55 1 0.222083 0.855772 0.156667
182 1 0.048475 0.71397 0.0421609
132 1 0.855292 0.576903 0.120854
419 1 0.0407542 0.501029 0.0843326
341 1 0.728947 0.970105 0.166219
408 1 0.248692 0.873883 0.0355663
335 1 0.412161 0.636027 0.00480881
262 1 0.088834 0.868825 0.0100538
145 1 0.0831109 0.63343 0.083282
442 1 0.0178483 0.790248 0.00142054
326 1 0.85427 0.702502 0.0538365
179 1 0.806711 0.623476 0.153838
385 1 0.472821 0.732555 0.158793
143 1 0.842668 0.798533 0.163394
382 1 0.481063 0.808975 0.124291
418 1 0.888817 0.529174 0.178618
154 1 0.911419 0.659814 0.10614
334 1 0.165816 0.838464 0.0157815
306 1 0.935984 0.936149 0.0713195
57 1 0.563851 0.955381 0.140141
178 1 0.293884 0.950179 0.0642584
6 1 0.816511 0.64346 0.0212882
137 1 0.597831 0.866072 0.129371
242 1 0.36315 0.624294 0.0704414
181 1 0.530293 0.602414 0.100617
212 1 0.130461 0.596952 0.14326
366 1 0.183924 0.951915 0.162947
311 1 0.688964 0.719471 0.191847
118 1 0.882664 0.761748 0.118904
28 1 0.0300725 0.997315 0.196979
134 1 0.187967 0.726179 0.00519758
183 1 0.595379 0.801358 0.132156
350 1 0.763972 0.805406 0.184986
30 1 0.93618 0.93269 0.175768
230 1 0.362699 0.986394 0.199412
33 1 0.632466 0.780846 0.193678
271 1 0.0372299 0.792304 0.300811
371 1 0.692261 0.641785 0.386843
441 1 0.0469277 0.864206 0.352616
246 1 0.537456 0.912022 0.213981
270 1 0.181409 0.714611 0.327878
356 1 0.860694 0.786016 0.361787
44 1 0.881797 0.949512 0.219778
167 1 0.625506 0.933986 0.333949
414 1 0.662562 0.553051 0.39235
108 1 0.333362 0.537586 0.238432
123 1 0.846804 0.516882 0.280555
367 1 0.429294 0.818695 0.282263
279 1 0.295966 0.975205 0.233461
129 1 0.744556 0.721279 0.347356
46 1 0.768455 0.653122 0.326537
409 1 0.990084 0.95681 0.292535
52 1 0.851929 0.589225 0.325907
285 1 0.481546 0.91977 0.270091
361 1 0.157842 0.711242 0.253638
272 1 0.278858 0.611022 0.389788
375 1 0.442872 0.691996 0.212923
168 1 0.185528 0.769903 0.208856
259 1 0.556902 0.703595 0.38046
402 1 0.655607 0.629043 0.24613
476 1 0.999718 0.736666 0.267297
83 1 0.807414 0.786994 0.266733
50 1 0.449574 0.728157 0.293168
324 1 0.728228 0.880816 0.276995
2 1 0.842977 0.923866 0.371179
20 1 0.632999 0.628253 0.338209
15 1 0.0618723 0.974004 0.279172
359 1 0.933944 0.664664 0.224867
73 1 0.430425 0.842074 0.359645
199 1 0.159651 0.985622 0.265728
294 1 0.245721 0.680546 0.364787
68 1 0.615795 0.523761 0.249156
507 1 0.987373 0.572686 0.353696
207 1 0.617437 0.919246 0.268074
60 1 0.489886 0.718782 0.360841
78 1 0.942981 0.612527 0.304001
7 1 0.0551779 0.521508 0.262956
292 1 0.420781 0.915089 0.240058
313 1 0.262813 0.555703 0.228255
463 1 0.694718 0.786795 0.327164
391 1 0.77281 0.91977 0.339147
388 1 0.90975 0.961116 0.316686
126 1 0.771072 0.660685 0.205565
211 1 0.124916 0.974029 0.201039
485 1 0.885776 0.60233 0.423555
496 1 0.0456514 0.754093 0.579359
305 1 0.0390866 0.978865 0.547417
358 1 0.216603 0.779295 0.476999
360 1 0.864314 0.979765 0.543907
39 1 0.600951 0.778411 0.41833
102 1 0.327562 0.783422 0.560717
225 1 0.258291 0.861893 0.477743
224 1 0.732497 0.563986 0.558953
97 1 0.838527 0.911894 0.570322
368 1 0.628277 0.629384 0.560913
387 1 0.969258 0.84537 0.489482
432 1 0.731594 0.728828 0.560574
505 1 0.12389 0.917481 0.466082
176 1 0.420782 0.623623 0.402524
252 1 0.117742 0.977539 0.410662
498 1 0.915275 0.992518 0.466302
344 1 0.723588 0.781014 0.452921
399 1 0.827016 0.782562 0.476103
25 1 0.643325 0.85689 0.530908
384 1 0.0795442 0.613523 0.58375
79 1 0.56551 0.879497 0.412169
228 1 0.583628 0.878446 0.487674
369 1 0.842916 0.527473 0.525794
63 1 0.00259658 0.778784 0.496176
448 1 0.651701 0.55382 0.583034
75 1 0.162523 0.726993 0.414864
318 1 0.648022 0.775573 0.473868
420 1 0.514009 0.57579 0.448564
191 1 0.925001 0.567538 0.516576
236 1 0.182001 0.651122 0.504622
291 1 0.512639 0.740543 0.518766
201 1 0.480804 0.806738 0.496069
413 1 0.0648578 0.684157 0.438374
308 1 0.649469 0.709561 0.531064
3 1 0.00556695 0.719909 0.42107
10 1 0.280608 0.566647 0.453548
184 1 0.141325 0.665722 0.579542
165 1 0.0843805 0.520844 0.502626
114 1 0.211389 0.58708 0.578728
186 1 0.282037 0.92875 0.477249
41 1 0.264364 0.549659 0.536297
425 1 0.77552 0.719037 0.502851
13 1 0.595799 0.592211 0.458069
386 1 0.988111 0.934254 0.521917
312 1 0.764983 0.96299 0.554274
258 1 0.400413 0.549935 0.429341
484 1 0.881556 0.748703 0.53081
398 1 0.294153 0.769875 0.501978
162 1 0.0994485 0.625843 0.477783
174 1 0.265666 0.909391 0.564611
12 1 0.685456 0.854382 0.596097
38 1 0.429183 0.896665 0.414673
198 1 0.973 0.831875 0.407716
127 1 0.928836 0.67182 0.430818
256 1 0.841125 0.718749 0.599865
76 1 0.447091 0.982937 0.40086
51 1 0.779046 0.757543 0.654815
222 1 0.0742217 0.658489 0.775175
352 1 0.545388 0.93394 0.626709
190 1 0.934627 0.504389 0.74207
304 1 0.330837 0.755418 0.752982
249 1 0.240307 0.554315 0.677761
65 1 0.325056 0.929438 0.62641
278 1 0.848953 0.905265 0.655504
136 1 0.0450243 0.526786 0.759647
469 1 0.227038 0.546858 0.791681
120 1 0.449788 0.872863 0.703244
412 1 0.829787 0.809883 0.68399
450 1 0.646416 0.522631 0.795023
428 1 0.932271 0.621017 0.634921
56 1 0.374392 0.973166 0.736084
337 1 0.62168 0.962972 0.643013
458 1 0.241498 0.882547 0.734203
141 1 0.124137 0.88395 0.725954
494 1 0.168593 0.538307 0.630603
208 1 0.799267 0.961663 0.779366
103 1 0.978369 0.781019 0.76819
254 1 0.050991 0.758097 0.654126
250 1 0.402579 0.669973 0.642871
502 1 0.189764 0.725428 0.698878
27 1 0.128656 0.75182 0.709961
349 1 0.991013 0.655748 0.638599
268 1 0.798179 0.593634 0.60677
499 1 0.730574 0.922856 0.617444
510 1 0.236674 0.966108 0.667356
195 1 0.343682 0.718084 0.637756
401 1 0.25968 0.730082 0.708033
202 1 0.649397 0.790753 0.620029
206 1 0.325238 0.984649 0.792645
379 1 0.627968 0.662114 0.725335
205 1 0.535526 0.786347 0.649063
446 1 0.69037 0.659517 0.684716
370 1 0.459586 0.776801 0.68963
16 1 0.150933 0.859217 0.663668
284 1 0.0633143 0.592967 0.793805
501 1 0.75173 0.694611 0.716935
351 1 0.360151 0.849527 0.606656
69 1 0.483008 0.967081 0.665107
122 1 0.864286 0.605055 0.617295
111 1 0.966261 0.78147 0.683839
338 1 0.716835 0.838316 0.776874
332 1 0.893175 0.787913 0.668255
147 1 0.567675 0.570465 0.787035
200 1 0.430767 0.665498 0.732679
364 1 0.272709 0.823511 0.774647
303 1 0.824852 0.661996 0.775071
461 1 0.648321 0.895724 0.777546
155 1 0.0557289 0.8997 0.742842
115 1 0.292463 0.894875 0.785911
437 1 0.418628 0.76454 0.751818
185 1 0.839495 0.805018 0.767313
29 1 0.0265045 0.719113 0.79099
422 1 0.779872 0.88476 0.793437
310 1 0.466974 0.718541 0.617653
156 1 0.928994 0.855391 0.942395
321 1 0.954976 0.820144 0.868091
316 1 0.389047 0.538993 0.868945
35 1 0.969873 0.531816 0.90712
153 1 0.670299 0.53301 0.904625
48 1 0.268763 0.926575 0.889392
172 1 0.453576 0.819183 0.802956
340 1 0.420497 0.58763 0.927105
456 1 0.55847 0.647563 0.826623
90 1 0.563583 0.665408 0.897065
234 1 0.217903 0.797051 0.865477
479 1 0.901194 0.551584 0.952343
347 1 0.341791 0.812338 0.936849
217 1 0.217659 0.595294 0.9764
135 1 0.272995 0.609544 0.937149
500 1 0.466516 0.878496 0.862692
117 1 0.47958 0.95173 0.854648
282 1 0.887454 0.73959 0.924315
214 1 0.080986 0.606605 0.959997
150 1 0.444881 0.707091 0.9702
280 1 0.555027 0.999119 0.858376
416 1 0.136467 0.538908 0.976185
227 1 0.130865 0.869757 0.866352
327 1 0.778238 0.549446 0.863571
151 1 0.306808 0.880632 0.965648
373 1 0.898294 0.643563 0.828864
94 1 0.940559 0.921418 0.985492
436 1 0.116508 0.748604 0.979531
343 1 0.198922 0.908853 0.887028
459 1 0.37931 0.985755 0.872277
113 1 0.0592639 0.531546 0.878197
149 1 0.128709 0.765528 0.905109
331 1 0.674541 0.686367 0.898281
152 1 0.690109 0.998792 0.857775
509 1 0.711763 0.733832 0.963791
465 1 0.392831 0.609463 0.836265
263 1 0.0495059 0.854047 0.877091
226 1 0.0301804 0.763476 0.861381
348 1 0.791679 0.637872 0.847499
128 1 0.800124 0.684561 0.941798
397 1 0.620051 0.548932 0.961001
139 1 0.936262 0.608382 0.887022
395 1 0.224937 0.750935 0.945644
93 1 0.673733 0.594395 0.952878
66 1 0.630892 0.932057 0.859569
169 1 0.419524 0.829844 0.929198
203 1 0.254251 0.617963 0.808719
486 1 0.309207 0.6512 0.858181
175 1 0.242102 0.663065 0.987642
471 1 0.920877 0.856977 0.809358
