ITEM: TIMESTEP
1500
ITEM: NUMBER OF ATOMS
512
ITEM: BOX BOUNDS pp pp pp
0.0000000000000000e+00 1.7235477520000000e+01
0.0000000000000000e+00 1.7235477520000000e+01
0.0000000000000000e+00 1.7235477520000000e+01
ITEM: ATOMS id type xs ys zs
441 1 0.852601 0.149317 0.044537
187 1 0.0422628 0.185494 0.0642079
94 1 0.65014 0.408509 0.0961005
350 1 0.0433356 0.208978 0.168847
218 1 0.581604 0.041596 0.0507746
151 1 0.366765 0.184591 0.0907628
93 1 0.937202 0.445166 0.0560137
77 1 0.898709 0.343932 0.116234
22 1 0.772232 0.317782 0.172237
319 1 0.338296 0.0869832 0.166506
249 1 0.962088 0.369881 0.0750661
392 1 0.112045 0.396195 0.0656684
3 1 0.789571 0.153249 0.00940311
193 1 0.112471 0.248283 0.0643846
192 1 0.855898 0.185855 0.136721
8 1 0.656042 0.419055 0.00674836
490 1 0.426902 0.240207 0.0616185
197 1 0.583266 0.112932 0.0466834
96 1 0.680023 0.234604 0.0842435
325 1 0.113077 0.117869 0.186379
334 1 0.184292 0.130669 0.147196
512 1 0.838205 0.311011 0.0561948
407 1 0.366659 0.413592 0.0905734
244 1 0.0816272 0.0344068 0.128239
353 1 0.201915 0.268246 0.186807
118 1 0.685162 0.317893 0.128846
474 1 0.309119 0.385438 0.082622
468 1 0.382252 0.100904 0.0869022
54 1 0.49934 0.234913 0.0108156
133 1 0.763674 0.134384 0.150114
196 1 0.537192 0.250813 0.0769305
309 1 0.871599 0.402666 0.16032
410 1 0.370437 0.441946 0.169158
251 1 0.088939 0.492175 0.102761
365 1 0.032884 0.355113 0.0940987
126 1 0.0418974 0.478848 0.169864
85 1 0.974212 0.16397 0.0200961
87 1 0.836528 0.276165 0.131505
286 1 0.24517 0.198014 0.192134
40 1 0.0532674 0.427341 0.0134609
49 1 0.382709 0.306653 0.00900979
363 1 0.785382 0.41374 0.177535
166 1 0.285359 0.0416368 0.198793
339 1 0.540649 0.465669 0.159975
427 1 0.31315 0.163167 0.154459
371 1 0.744003 0.461972 0.126521
170 1 0.25561 0.329609 0.0658659
377 1 0.620011 0.200209 0.0819156
443 1 0.16202 0.303449 0.0963523
504 1 0.0360258 0.245871 0.021842
301 1 0.430243 0.0587791 0.0268903
158 1 0.500749 0.255144 0.152067
444 1 0.63434 0.495489 0.106643
271 1 0.990475 0.222569 0.219672
70 1 0.483337 0.125672 0.260909
258 1 0.452008 0.0576788 0.265943
78 1 0.887596 0.474013 0.290443
435 1 0.346731 0.160196 0.341228
281 1 0.264357 0.157566 0.328044
455 1 0.851721 0.448895 0.230829
492 1 0.0205748 0.444929 0.241026
108 1 0.390855 0.493645 0.342527
91 1 0.874879 0.37205 0.399026
188 1 0.687056 0.130032 0.253816
400 1 0.133123 0.258621 0.22499
257 1 0.812553 0.0769521 0.356083
417 1 0.97001 0.0891663 0.280374
391 1 0.865744 0.0779663 0.287639
101 1 0.754745 0.291758 0.243148
211 1 0.183805 0.336369 0.244878
42 1 0.751587 0.137266 0.382043
189 1 0.204883 0.0315059 0.357672
433 1 0.701116 0.305597 0.298848
37 1 0.341415 0.0142754 0.346614
223 1 0.661168 0.486003 0.274175
405 1 0.125487 0.163203 0.257833
464 1 0.493068 0.192656 0.2867
5 1 0.825796 0.184598 0.346922
503 1 0.597934 0.149314 0.37969
116 1 0.428837 0.31554 0.347072
266 1 0.443711 0.27109 0.284826
26 1 0.575896 0.222189 0.311743
4 1 0.44157 0.4256 0.350252
341 1 0.75458 0.0986036 0.219406
221 1 0.386198 0.0759664 0.311705
298 1 0.962907 0.493932 0.250487
273 1 0.788265 0.337873 0.396507
481 1 0.916499 0.183228 0.217033
68 1 0.530505 0.461309 0.372724
164 1 0.646488 0.229232 0.324655
497 1 0.18722 0.399866 0.278969
380 1 0.284924 0.461921 0.225104
209 1 0.606327 0.483283 0.321952
207 1 0.838255 0.155932 0.256468
366 1 0.0361496 0.134766 0.325979
470 1 0.678908 0.124337 0.333624
232 1 0.243096 0.44148 0.325734
342 1 0.718447 0.381128 0.322595
352 1 0.711197 0.447385 0.341864
255 1 0.392974 0.371911 0.201653
307 1 0.220965 0.188481 0.393608
320 1 0.835024 0.261607 0.375487
322 1 0.534545 0.116111 0.397565
163 1 0.440361 0.301916 0.20177
386 1 0.926299 0.166421 0.491965
260 1 0.132241 0.0569234 0.432328
302 1 0.917538 0.415778 0.519463
11 1 0.0576811 0.154046 0.503267
67 1 0.349583 0.175866 0.526579
165 1 0.91289 0.439344 0.427264
86 1 0.0321283 0.326613 0.458399
25 1 0.496438 0.00824817 0.534416
368 1 0.641095 0.003544 0.584919
438 1 0.550299 0.280504 0.581935
24 1 0.89655 0.120861 0.556245
213 1 0.379153 0.244879 0.493355
60 1 0.430776 0.0177805 0.415454
243 1 0.649652 0.193297 0.495018
13 1 0.544414 0.286593 0.501814
201 1 0.115158 0.355388 0.586438
235 1 0.258703 0.314821 0.477231
79 1 0.451333 0.106836 0.436871
507 1 0.722486 0.411376 0.593049
171 1 0.706645 0.191269 0.449407
420 1 0.487338 0.339842 0.45976
109 1 0.071388 0.388194 0.42146
488 1 0.519201 0.406333 0.442581
355 1 0.665445 0.356787 0.489809
411 1 0.220029 0.25455 0.436939
267 1 0.191113 0.100467 0.480044
89 1 0.0449894 0.138648 0.408772
491 1 0.494839 0.138261 0.597017
311 1 0.808455 0.415948 0.563929
277 1 0.976978 0.178062 0.430181
462 1 0.365963 0.39221 0.508613
357 1 0.122575 0.111529 0.53226
129 1 0.482264 0.0985466 0.518188
241 1 0.356637 0.467846 0.521482
328 1 0.328078 0.113101 0.570799
287 1 0.10697 0.351818 0.490807
231 1 0.627171 0.223293 0.574209
422 1 0.713464 0.0191873 0.583971
418 1 0.969705 0.275116 0.425678
372 1 0.611567 0.298166 0.463257
14 1 0.347285 0.32017 0.503917
423 1 0.759425 0.373926 0.510424
34 1 0.585741 0.391086 0.492359
484 1 0.986584 0.496369 0.423259
173 1 0.173066 0.310798 0.485241
351 1 0.0608103 0.461133 0.433575
333 1 0.888676 0.292108 0.438597
483 1 0.140159 0.271368 0.567777
71 1 0.437355 0.259327 0.420354
146 1 0.131317 0.0235563 0.558633
100 1 0.991003 0.329867 0.654746
489 1 0.0269167 0.467372 0.734516
220 1 0.674852 0.438261 0.700448
113 1 0.0853825 0.467107 0.646948
293 1 0.37339 0.190072 0.694874
269 1 0.00149982 0.0309745 0.627417
345 1 0.012499 0.476765 0.655001
140 1 0.0507375 0.34318 0.706574
314 1 0.0766512 0.217848 0.753056
450 1 0.664017 0.316582 0.754732
80 1 0.430791 0.329259 0.79044
242 1 0.729489 0.483538 0.795524
41 1 0.248927 0.241141 0.72514
396 1 0.896573 0.323461 0.644659
216 1 0.280423 0.165144 0.699151
284 1 0.836385 0.48419 0.789326
139 1 0.959077 0.400925 0.61074
453 1 0.808719 0.227264 0.71452
120 1 0.243464 0.0461762 0.673281
177 1 0.659894 0.270784 0.702156
88 1 0.373069 0.333849 0.657059
248 1 0.992651 0.062858 0.748544
498 1 0.803065 0.281928 0.772861
360 1 0.115896 0.393736 0.660299
130 1 0.464024 0.309974 0.676418
389 1 0.670045 0.22781 0.628405
64 1 0.302034 0.309551 0.708262
429 1 0.763777 0.0378226 0.736126
336 1 0.508439 0.171115 0.717454
202 1 0.670277 0.0287775 0.795647
219 1 0.447228 0.167049 0.636179
217 1 0.489945 0.440875 0.783905
425 1 0.793489 0.285274 0.648695
233 1 0.519735 0.0760178 0.699498
316 1 0.380455 0.477067 0.692334
478 1 0.223958 0.0218826 0.607046
90 1 0.41313 0.426752 0.776879
252 1 0.937341 0.142297 0.617597
370 1 0.347844 0.109119 0.74165
280 1 0.629968 0.0858983 0.784288
393 1 0.283923 0.110763 0.622866
477 1 0.252824 0.470776 0.733743
110 1 0.0370251 0.134263 0.765563
349 1 0.915458 0.480008 0.627934
74 1 0.604528 0.0786553 0.705796
431 1 0.0748431 0.256373 0.669595
15 1 0.986226 0.0964605 0.65896
238 1 0.27078 0.368222 0.745767
205 1 0.37967 0.035219 0.685131
112 1 0.536566 0.310033 0.653358
295 1 0.889928 0.353413 0.7745
208 1 0.916641 0.0181995 0.787129
190 1 0.0916627 0.280029 0.799178
299 1 0.567698 0.12533 0.830891
465 1 0.558106 0.436662 0.8059
275 1 0.953309 0.369439 0.827154
222 1 0.0649401 0.44919 0.89117
48 1 0.193291 0.108851 0.819791
115 1 0.434515 0.0422074 0.868277
409 1 0.965635 0.0474651 0.9116
467 1 0.925093 0.474427 0.804473
296 1 0.0258948 0.26932 0.937723
445 1 0.721249 0.420834 0.969346
373 1 0.76732 0.293769 0.855136
482 1 0.357511 0.0516245 0.874873
169 1 0.291138 0.0763841 0.940493
469 1 0.385276 0.447328 0.977344
346 1 0.210833 0.371851 0.895593
446 1 0.685842 0.436734 0.842124
480 1 0.161372 0.172005 0.842712
159 1 0.421207 0.243925 0.899164
511 1 0.274831 0.0627144 0.865899
30 1 0.810611 0.0538587 0.893886
157 1 0.230492 0.329845 0.957208
315 1 0.673939 0.28358 0.901458
131 1 0.521096 0.0247519 0.922866
379 1 0.742801 0.347394 0.946365
442 1 0.155972 0.0267246 0.816187
439 1 0.89149 0.0209077 0.869076
261 1 0.943518 0.204387 0.919117
81 1 0.59366 0.48298 0.87268
430 1 0.480215 0.217905 0.937364
254 1 0.130404 0.362039 0.87829
276 1 0.615621 0.238732 0.92045
17 1 0.88887 0.165183 0.974177
121 1 0.0169715 0.334131 0.877427
327 1 0.93398 0.435464 0.883185
340 1 0.581981 0.478059 0.961572
415 1 0.558159 0.0362349 0.861103
383 1 0.366494 0.472726 0.838191
172 1 0.302978 0.281497 0.974139
343 1 0.39578 0.495727 0.921408
117 1 0.433642 0.18446 0.822493
119 1 0.0102581 0.166594 0.843762
124 1 0.789624 0.31067 0.991924
56 1 0.276871 0.262935 0.816284
44 1 0.0797919 0.193134 0.874698
451 1 0.541641 0.292613 0.935935
466 1 0.973031 0.473155 0.94124
321 1 0.83294 0.139378 0.904949
43 1 0.509562 0.174811 0.803098
23 1 0.766383 0.195643 0.922639
152 1 0.763028 0.0427139 0.832983
214 1 0.379479 0.370118 0.980947
98 1 0.141463 0.00446756 0.964258
306 1 0.222331 0.015083 0.949393
245 1 0.696308 0.329238 0.836587
494 1 0.252608 0.337423 0.815
403 1 0.975212 0.0133187 0.972464
160 1 0.493717 0.0597244 0.999286
138 1 0.404082 0.260385 0.800555
324 1 0.650048 0.963823 0.173531
424 1 0.28065 0.961848 0.198233
7 1 0.110699 0.853662 0.15654
331 1 0.406376 0.75363 0.0466147
181 1 0.527859 0.578804 0.0807502
168 1 0.183639 0.67961 0.112862
246 1 0.576712 0.714589 0.0654198
290 1 0.539925 0.779008 0.103669
247 1 0.497977 0.648402 0.0475381
264 1 0.287394 0.900849 0.137536
294 1 0.228447 0.884592 0.0932943
288 1 0.778071 0.961337 0.0983195
304 1 0.519972 0.91897 0.0401521
385 1 0.450086 0.8508 0.137083
313 1 0.129374 0.714727 0.179649
262 1 0.150119 0.890643 0.100668
20 1 0.671685 0.706846 0.0557203
485 1 0.00268691 0.740084 0.0725115
134 1 0.319845 0.689321 0.141804
125 1 0.449446 0.780468 0.109032
440 1 0.293554 0.769597 0.122907
359 1 0.265469 0.73405 0.0385498
452 1 0.704139 0.980149 0.100148
107 1 0.669992 0.625196 0.0128954
58 1 0.649974 0.966798 0.0423208
47 1 0.384569 0.928819 0.0580945
61 1 0.764594 0.547402 0.095425
265 1 0.457231 0.930515 0.175611
326 1 0.909495 0.805589 0.163675
263 1 0.0415108 0.977677 0.0389075
283 1 0.852412 0.941057 0.130039
46 1 0.910262 0.881483 0.1162
83 1 0.975059 0.780824 0.135618
475 1 0.00368864 0.667186 0.0465511
416 1 0.402786 0.663271 0.0483733
426 1 0.702117 0.668679 0.11529
362 1 0.85024 0.655274 0.178615
493 1 0.00481712 0.590704 0.0172908
390 1 0.330436 0.631033 0.0514627
180 1 0.503514 0.836131 0.193001
104 1 0.501243 0.62123 0.18415
479 1 0.537566 0.504487 0.0902414
106 1 0.610277 0.902524 0.0253542
402 1 0.796779 0.688312 0.00819364
225 1 0.110371 0.539651 0.0420071
432 1 0.565746 0.809911 0.0249762
55 1 0.223265 0.669072 0.0278051
179 1 0.740996 0.555878 0.0122648
62 1 0.913981 0.978125 0.175325
95 1 0.728409 0.608541 0.157286
289 1 0.986464 0.542832 0.196514
194 1 0.0464574 0.883544 0.182657
204 1 0.88777 0.721419 0.188708
75 1 0.307463 0.836607 0.190524
145 1 0.119215 0.966861 0.0243343
378 1 0.15499 0.605474 0.00624792
132 1 0.139901 0.693194 0.00648462
376 1 0.953606 0.507267 0.0162409
285 1 0.679156 0.883702 0.297155
198 1 0.0011138 0.750005 0.276645
270 1 0.222228 0.795761 0.263953
381 1 0.0929132 0.968284 0.206823
454 1 0.881516 0.985081 0.256891
72 1 0.896587 0.731092 0.272227
142 1 0.443157 0.955865 0.239526
297 1 0.232941 0.518052 0.373711
406 1 0.437983 0.600239 0.228325
186 1 0.127962 0.796754 0.205976
1 1 0.779673 0.652622 0.223099
428 1 0.119065 0.77189 0.357889
31 1 0.616353 0.848834 0.264026
76 1 0.295238 0.872146 0.378139
394 1 0.240582 0.707824 0.289051
33 1 0.584122 0.590538 0.208296
329 1 0.549335 0.737178 0.369767
292 1 0.460325 0.773381 0.393264
361 1 0.186283 0.703599 0.36284
330 1 0.359043 0.859641 0.378213
51 1 0.807276 0.987587 0.375432
28 1 0.54527 0.545532 0.291041
50 1 0.390983 0.773461 0.362424
408 1 0.535449 0.843763 0.262972
18 1 0.018223 0.74588 0.364603
259 1 0.742765 0.831476 0.33659
388 1 0.360696 0.629752 0.399359
229 1 0.636771 0.917374 0.223914
404 1 0.307056 0.677502 0.225525
272 1 0.34575 0.538977 0.277623
123 1 0.591306 0.619695 0.290189
476 1 0.0765449 0.690225 0.219141
127 1 0.792186 0.716078 0.266185
305 1 0.755693 0.752094 0.317777
16 1 0.885504 0.970149 0.330641
317 1 0.596419 0.638725 0.358915
59 1 0.345428 0.547119 0.367322
234 1 0.35271 0.611052 0.248628
92 1 0.537105 0.867417 0.33
279 1 0.467003 0.563049 0.312861
97 1 0.0321617 0.819091 0.240796
167 1 0.496492 0.856185 0.394915
499 1 0.140093 0.829323 0.297009
230 1 0.389132 0.7028 0.386347
212 1 0.605318 0.502669 0.207972
256 1 0.979201 0.6358 0.474756
210 1 0.209542 0.976762 0.557958
447 1 0.472146 0.532393 0.561833
21 1 0.708409 0.761067 0.51931
27 1 0.113714 0.527961 0.436951
463 1 0.637101 0.792188 0.483168
506 1 0.137481 0.567804 0.515201
510 1 0.0935841 0.805364 0.486685
65 1 0.224504 0.893455 0.514056
240 1 0.266575 0.814301 0.519407
224 1 0.57816 0.563972 0.421936
32 1 0.764274 0.607998 0.582224
10 1 0.0669992 0.58099 0.556337
414 1 0.538736 0.86962 0.587492
105 1 0.524608 0.986749 0.451132
199 1 0.203771 0.899795 0.426964
191 1 0.882622 0.588816 0.584713
367 1 0.470288 0.684496 0.555521
496 1 0.75058 0.952803 0.416959
268 1 0.817864 0.812375 0.547569
472 1 0.267504 0.591573 0.52319
398 1 0.0781664 0.727707 0.502074
369 1 0.517833 0.575778 0.490154
9 1 0.189121 0.656329 0.420389
128 1 0.881436 0.765532 0.564993
473 1 0.173814 0.978128 0.41446
308 1 0.585013 0.854363 0.521107
228 1 0.345332 0.609483 0.5771
155 1 0.983257 0.803385 0.599965
448 1 0.525162 0.902282 0.453801
318 1 0.756575 0.843907 0.50948
508 1 0.399923 0.536331 0.536737
356 1 0.927827 0.527689 0.565511
253 1 0.9988 0.918926 0.51086
502 1 0.0276433 0.845087 0.534664
495 1 0.212218 0.748264 0.43426
52 1 0.991836 0.552001 0.485987
348 1 0.741848 0.877448 0.431151
419 1 0.268575 0.749258 0.499394
2 1 0.780192 0.990708 0.571136
19 1 0.208332 0.578086 0.562326
501 1 0.717224 0.711012 0.582256
12 1 0.483271 0.744138 0.486083
184 1 0.0350015 0.684022 0.422995
141 1 0.0502851 0.73001 0.584439
53 1 0.144816 0.823695 0.424253
144 1 0.617276 0.742512 0.432967
45 1 0.0540421 0.527047 0.597879
84 1 0.703229 0.557968 0.59236
63 1 0.177781 0.577319 0.424569
421 1 0.986735 0.999233 0.549148
509 1 0.886547 0.690414 0.594735
338 1 0.317421 0.881339 0.684263
358 1 0.0366538 0.830193 0.714353
103 1 0.0896907 0.815177 0.774863
401 1 0.406679 0.643246 0.727235
176 1 0.331523 0.831677 0.60718
206 1 0.124064 0.979875 0.770211
300 1 0.0931534 0.973952 0.630383
397 1 0.634245 0.588896 0.655831
310 1 0.417959 0.889465 0.637281
175 1 0.423683 0.830396 0.725326
278 1 0.795527 0.965639 0.698889
195 1 0.329134 0.826043 0.737165
102 1 0.526401 0.580401 0.649568
69 1 0.491648 0.805279 0.699331
449 1 0.499397 0.656105 0.63646
73 1 0.622714 0.800512 0.7443
354 1 0.256944 0.574798 0.643047
399 1 0.639888 0.638828 0.720237
226 1 0.973049 0.817813 0.67351
135 1 0.812847 0.562935 0.784284
505 1 0.0547692 0.699692 0.665885
395 1 0.331566 0.705824 0.773305
456 1 0.840438 0.966028 0.610404
384 1 0.82676 0.566452 0.638689
413 1 0.181382 0.515954 0.727314
174 1 0.109678 0.653445 0.690907
149 1 0.0192204 0.531264 0.776748
250 1 0.600391 0.731996 0.706021
29 1 0.937849 0.88269 0.71337
156 1 0.743285 0.722657 0.787609
200 1 0.292768 0.75267 0.713813
185 1 0.573526 0.935869 0.758006
323 1 0.712566 0.502627 0.651924
312 1 0.430324 0.981159 0.67602
215 1 0.5229 0.985803 0.686732
459 1 0.0636629 0.967876 0.707041
344 1 0.86188 0.911153 0.667754
458 1 0.150244 0.583384 0.718026
36 1 0.720103 0.791915 0.725944
236 1 0.55354 0.677671 0.711307
457 1 0.73075 0.563774 0.799615
291 1 0.556472 0.856806 0.727224
227 1 0.959205 0.950305 0.760252
147 1 0.29875 0.508434 0.689092
337 1 0.330876 0.757493 0.629392
374 1 0.687617 0.650281 0.789125
471 1 0.935786 0.872226 0.789053
460 1 0.553853 0.958157 0.605877
239 1 0.788213 0.694951 0.612558
38 1 0.388345 0.705801 0.61846
162 1 0.839246 0.503378 0.688673
114 1 0.311148 0.501157 0.794676
412 1 0.640533 0.816949 0.825298
461 1 0.509258 0.580947 0.845644
500 1 0.827241 0.749138 0.807338
137 1 0.601344 0.894122 0.876913
99 1 0.0819131 0.668581 0.819703
332 1 0.500602 0.805526 0.974593
434 1 0.0690207 0.57142 0.981211
335 1 0.540198 0.732102 0.971836
178 1 0.827099 0.915847 0.928287
282 1 0.831675 0.65392 0.947588
182 1 0.235092 0.995116 0.857824
183 1 0.64277 0.828965 0.905885
375 1 0.623994 0.623052 0.929672
487 1 0.60623 0.927857 0.945118
148 1 0.800612 0.979574 0.950945
39 1 0.390276 0.97496 0.865894
82 1 0.378399 0.79367 0.908389
486 1 0.692077 0.608237 0.873517
136 1 0.441785 0.573346 0.886373
66 1 0.876028 0.837621 0.827431
347 1 0.428525 0.921769 0.92933
6 1 0.545232 0.631045 0.897324
35 1 0.128096 0.733087 0.813762
436 1 0.00619908 0.675909 0.817995
154 1 0.884064 0.612335 0.895153
203 1 0.378808 0.734502 0.83498
150 1 0.421803 0.640689 0.817879
122 1 0.848193 0.624803 0.813864
364 1 0.325332 0.850969 0.929911
382 1 0.610929 0.957987 0.820886
237 1 0.154652 0.933948 0.837242
143 1 0.756976 0.591497 0.93529
111 1 0.96672 0.555238 0.834074
57 1 0.430065 0.761694 0.964752
161 1 0.318566 0.895414 0.991145
274 1 0.644858 0.812456 0.97668
387 1 0.914234 0.675089 0.844903
303 1 0.903618 0.749775 0.80411
153 1 0.739135 0.506528 0.951692
437 1 0.447638 0.906413 0.997165
