ITEM: TIMESTEP
800
ITEM: NUMBER OF ATOMS
512
ITEM: BOX BOUNDS pp pp pp
0.0000000000000000e+00 1.7235477520000000e+01
0.0000000000000000e+00 1.7235477520000000e+01
0.0000000000000000e+00 1.7235477520000000e+01
ITEM: ATOMS id type xs ys zs
164 1 0.466975 0.0162699 0.142236
390 1 0.556532 0.495026 0.0700761
319 1 0.0233396 0.090535 0.172208
68 1 0.695743 0.427933 0.0886287
255 1 0.25225 0.215168 0.0423857
435 1 0.405162 0.277375 0.0599062
452 1 0.375395 0.0374504 0.0147663
107 1 0.518619 0.139503 0.0799049
204 1 0.150832 0.190257 0.111461
275 1 0.996912 0.41521 0.0285046
378 1 0.978284 0.20215 0.154243
70 1 0.242689 0.362835 0.0446552
440 1 0.213649 0.47388 0.112443
333 1 0.695615 0.182941 0.165548
123 1 0.968083 0.479696 0.198321
193 1 0.759471 0.0222559 0.00059621
397 1 0.727101 0.464286 0.0357862
244 1 0.208646 0.188989 0.171614
23 1 0.754942 0.216106 0.180665
265 1 0.941373 0.170341 0.0424036
407 1 0.0995646 0.208238 0.0566862
445 1 0.555036 0.181847 0.147139
239 1 0.618546 0.466383 0.0181887
161 1 0.0256252 0.18309 0.0298307
426 1 0.778104 0.0834747 0.0875804
325 1 0.439932 0.11049 0.101711
8 1 0.578366 0.148621 0.022995
158 1 0.389139 0.441936 0.138294
392 1 0.0896172 0.28765 0.0478977
314 1 0.56097 0.26676 0.00559027
233 1 0.633519 0.304472 0.0274771
22 1 0.311441 0.271639 0.0577901
504 1 0.835158 0.121569 0.149928
160 1 0.355563 0.0189727 0.178547
26 1 0.732856 0.0936415 0.0210083
362 1 0.0943174 0.0867344 0.164589
406 1 0.30528 0.351382 0.0840467
480 1 0.43067 0.225055 0.00862521
455 1 0.0521849 0.354003 0.0727554
84 1 0.253555 0.385441 0.173466
511 1 0.682249 0.356801 0.031837
197 1 0.396415 0.00546402 0.0995465
71 1 0.196689 0.338337 0.198932
317 1 0.59252 0.352673 0.193968
101 1 0.32242 0.0787901 0.196337
281 1 0.575372 0.252421 0.224062
229 1 0.778116 0.26606 0.228309
462 1 0.712241 0.472554 0.271796
14 1 0.261464 0.24517 0.32513
264 1 0.00275454 0.098626 0.353959
199 1 0.962039 0.0431289 0.307546
298 1 0.958923 0.27249 0.318128
85 1 0.971763 0.352316 0.236614
157 1 0.0661765 0.264288 0.258763
251 1 0.136726 0.322542 0.245097
81 1 0.394453 0.424034 0.211115
391 1 0.807711 0.00192727 0.319971
492 1 0.431049 0.349872 0.370282
266 1 0.810458 0.0707071 0.20196
196 1 0.571009 0.395576 0.265676
37 1 0.631258 0.19272 0.211119
77 1 0.89248 0.323843 0.254844
9 1 0.0101834 0.438422 0.27369
423 1 0.201054 0.434652 0.339338
73 1 0.423059 0.00774295 0.314609
489 1 0.0117177 0.433488 0.359585
92 1 0.374631 0.220266 0.323589
15 1 0.00818365 0.0289389 0.235858
220 1 0.84698 0.450792 0.353393
21 1 0.853825 0.385014 0.328411
405 1 0.96185 0.211285 0.306109
488 1 0.446642 0.262143 0.346625
400 1 0.306051 0.170418 0.300002
38 1 0.426948 0.0760911 0.363009
477 1 0.0257126 0.16953 0.295573
365 1 0.686957 0.491867 0.346609
148 1 0.471815 0.157209 0.216352
411 1 0.374937 0.386813 0.358351
339 1 0.0539098 0.159966 0.211423
61 1 0.915619 0.184954 0.209045
288 1 0.580132 0.0963036 0.278577
42 1 0.855044 0.0671462 0.282475
104 1 0.606954 0.479419 0.282367
328 1 0.723285 0.260548 0.311494
31 1 0.610522 0.386849 0.343391
231 1 0.813038 0.240053 0.363461
481 1 0.864569 0.135219 0.349885
144 1 0.00255161 0.349739 0.317923
454 1 0.645647 0.0877638 0.250152
444 1 0.490693 0.227214 0.237518
493 1 0.22288 0.415981 0.255635
279 1 0.236937 0.0333926 0.347219
166 1 0.262874 0.158631 0.212464
277 1 0.862756 0.246781 0.231729
4 1 0.322819 0.392888 0.252227
380 1 0.30796 0.334573 0.31299
95 1 0.796984 0.335469 0.363467
355 1 0.745365 0.231331 0.39432
309 1 0.0216486 0.412676 0.207739
377 1 0.899231 0.113008 0.205387
417 1 0.464405 0.0690166 0.215738
287 1 0.974911 0.287487 0.474866
64 1 0.554829 0.153923 0.598732
91 1 0.0358206 0.219352 0.550042
483 1 0.18157 0.174901 0.46543
257 1 0.0318036 0.139592 0.485924
213 1 0.574274 0.362821 0.419167
297 1 0.0401697 0.279103 0.421974
173 1 0.288569 0.265596 0.489097
89 1 0.33634 0.231662 0.557282
80 1 0.671032 0.348914 0.525572
307 1 0.515516 0.104369 0.531363
112 1 0.898649 0.285784 0.470993
232 1 0.0189812 0.146957 0.410563
76 1 0.420235 0.129207 0.426213
320 1 0.832142 0.223341 0.434312
506 1 0.318872 0.427981 0.425353
221 1 0.716046 0.440828 0.528839
171 1 0.474153 0.0160133 0.536019
100 1 0.934887 0.0964484 0.500433
315 1 0.835365 0.148726 0.489588
258 1 0.479456 0.47305 0.514012
67 1 0.2438 0.462893 0.417029
177 1 0.819479 0.347094 0.473405
491 1 0.598858 0.21586 0.472059
142 1 0.613098 0.380749 0.484479
62 1 0.515563 0.00660817 0.581961
472 1 0.371672 0.42895 0.583962
394 1 0.165872 0.0889093 0.511872
24 1 0.65284 0.462048 0.473442
427 1 0.103438 0.219884 0.494161
243 1 0.255821 0.33833 0.429519
330 1 0.252753 0.0797218 0.45268
286 1 0.392535 0.2793 0.562956
293 1 0.280345 0.190017 0.583419
342 1 0.596488 0.158673 0.536042
381 1 0.070288 0.0872647 0.551495
473 1 0.241784 0.0074375 0.42338
447 1 0.757209 0.369338 0.519602
498 1 0.890826 0.0314904 0.564513
510 1 0.203448 0.0776893 0.586464
460 1 0.137101 0.303272 0.552738
110 1 0.72085 0.0317846 0.571061
495 1 0.510339 0.187405 0.427944
273 1 0.656068 0.214073 0.418183
109 1 0.769789 0.0885221 0.549974
267 1 0.313717 0.0337262 0.546033
240 1 0.547772 0.118696 0.411804
357 1 0.986087 0.0690077 0.584448
86 1 0.77691 0.115665 0.428281
329 1 0.362946 0.0722914 0.592459
189 1 0.350154 0.151957 0.599854
345 1 0.0922326 0.345165 0.599982
72 1 0.374176 0.345947 0.596912
140 1 0.172341 0.395349 0.405859
393 1 0.463671 0.470204 0.768534
131 1 0.703005 0.0304957 0.638566
206 1 0.336345 0.0621284 0.710265
295 1 0.827915 0.164387 0.733134
190 1 0.972308 0.498555 0.651236
300 1 0.969543 0.338607 0.76879
438 1 0.587963 0.0958419 0.633528
96 1 0.692092 0.0690916 0.710272
274 1 0.876519 0.128009 0.792057
19 1 0.0551914 0.392331 0.661565
159 1 0.113584 0.260548 0.755324
430 1 0.578984 0.117178 0.746125
305 1 0.0576441 0.0248604 0.619229
253 1 0.023607 0.139424 0.616043
474 1 0.377457 0.470282 0.664382
512 1 0.627174 0.294961 0.65313
269 1 0.810581 0.138605 0.658722
130 1 0.55914 0.234063 0.656709
346 1 0.169243 0.130117 0.791508
424 1 0.302472 0.411894 0.796496
11 1 0.31492 0.127635 0.746804
451 1 0.814429 0.242227 0.745776
210 1 0.21767 0.10243 0.728644
170 1 0.37553 0.441519 0.741932
260 1 0.0313729 0.336622 0.727373
457 1 0.539171 0.418803 0.755026
389 1 0.780092 0.20175 0.624312
497 1 0.889023 0.333851 0.786989
403 1 0.934954 0.138119 0.712183
249 1 0.301663 0.498483 0.622269
374 1 0.693119 0.0118106 0.779447
74 1 0.542545 0.22328 0.737936
415 1 0.448947 0.0356768 0.720301
429 1 0.748406 0.283701 0.642473
421 1 0.0653878 0.0454874 0.699979
450 1 0.542741 0.455134 0.676342
503 1 0.937848 0.176331 0.778718
248 1 0.0170148 0.127569 0.691522
302 1 0.0560074 0.473103 0.665521
296 1 0.125619 0.203749 0.67228
119 1 0.68847 0.328515 0.624082
219 1 0.17144 0.135813 0.667828
372 1 0.614983 0.453605 0.786749
443 1 0.878894 0.438579 0.782121
268 1 0.896416 0.492826 0.607469
470 1 0.826289 0.0684772 0.61828
383 1 0.120752 0.491388 0.603033
216 1 0.447758 0.448136 0.959506
245 1 0.802691 0.281424 0.803366
121 1 0.124301 0.423656 0.917733
87 1 0.759309 0.274121 0.858836
261 1 0.620228 0.277285 0.94193
99 1 0.934093 0.348752 0.944787
396 1 0.99105 0.218163 0.82109
163 1 0.490735 0.345031 0.924688
353 1 0.0104109 0.331 0.919354
49 1 0.690272 0.201483 0.969804
43 1 0.584734 0.35196 0.813986
376 1 0.903622 0.420484 0.98991
187 1 0.000705688 0.479032 0.863075
464 1 0.56706 0.391188 0.980791
152 1 0.565538 0.0206203 0.922332
482 1 0.468963 0.0979967 0.918196
116 1 0.926257 0.0204246 0.979615
35 1 0.79897 0.497554 0.933338
289 1 0.086555 0.323212 0.892402
468 1 0.420021 0.35838 0.977928
17 1 0.791088 0.12588 0.832929
459 1 0.506169 0.0246466 0.865239
433 1 0.896521 0.286905 0.916801
467 1 0.267841 0.309068 0.900023
209 1 0.263948 0.324088 0.836909
1 1 0.120156 0.162802 0.823317
32 1 0.800234 0.301039 0.944929
469 1 0.256404 0.451917 0.854444
475 1 0.759195 0.389093 0.87685
431 1 0.0520723 0.46685 0.940795
343 1 0.19116 0.00964759 0.924053
153 1 0.827647 0.373337 0.957782
410 1 0.183564 0.458401 0.879791
449 1 0.494201 0.340916 0.834737
237 1 0.436831 0.120356 0.833661
439 1 0.591561 0.0941103 0.963054
146 1 0.434953 0.331611 0.885067
47 1 0.943506 0.0980846 0.991728
299 1 0.196571 0.29636 0.976111
133 1 0.662642 0.10739 0.993815
363 1 0.737547 0.254322 0.940781
478 1 0.391454 0.140035 0.998718
215 1 0.445884 0.0414754 0.808384
214 1 0.189059 0.463968 0.968886
508 1 0.730229 0.457344 0.879523
486 1 0.334491 0.461816 0.956496
36 1 0.71449 0.080969 0.815152
40 1 0.102746 0.332223 0.800223
88 1 0.578092 0.162555 0.819667
128 1 0.704196 0.698402 0.0452838
192 1 0.832288 0.944859 0.0900697
126 1 0.704787 0.604309 0.157909
487 1 0.834387 0.997124 0.0340054
434 1 0.022246 0.765174 0.0191378
105 1 0.471508 0.922209 0.0312854
18 1 0.367814 0.579862 0.174447
218 1 0.459261 0.812095 0.0233277
125 1 0.598941 0.822445 0.113715
98 1 0.916843 0.91013 0.105379
418 1 0.884093 0.550177 0.183624
217 1 0.24689 0.5558 0.0988557
55 1 0.17688 0.937632 0.135099
402 1 0.640277 0.629206 0.191478
132 1 0.897741 0.598195 0.0397131
134 1 0.243558 0.71608 0.0313157
341 1 0.763408 0.919349 0.10254
292 1 0.48811 0.862165 0.191605
108 1 0.347272 0.514483 0.132725
507 1 0.165907 0.593811 0.196129
145 1 0.0331637 0.584972 0.0698888
340 1 0.441334 0.552928 0.00612628
44 1 0.843965 0.730939 0.125492
179 1 0.775097 0.547352 0.154591
385 1 0.492263 0.788247 0.15351
143 1 0.861357 0.79619 0.0862129
150 1 0.503519 0.511265 0.107905
93 1 0.602297 0.678898 0.0262442
326 1 0.998056 0.8435 0.015184
334 1 0.287811 0.792102 0.0623257
207 1 0.675082 0.924458 0.0818858
57 1 0.516534 0.918113 0.129527
271 1 0.0272989 0.714363 0.179024
6 1 0.948692 0.586735 0.118229
137 1 0.661058 0.853182 0.0472326
416 1 0.233854 0.645886 0.0290716
181 1 0.578098 0.687739 0.148747
58 1 0.288487 0.979491 0.0245635
366 1 0.20974 0.935767 0.078261
211 1 0.00503324 0.954433 0.186275
118 1 0.933298 0.777856 0.0439182
28 1 0.00664169 0.913501 0.119854
83 1 0.922222 0.705258 0.182241
178 1 0.366586 0.941063 0.0442772
306 1 0.895338 0.900685 0.0227938
313 1 0.286568 0.594265 0.158742
476 1 0.0815045 0.784579 0.176923
154 1 0.871585 0.663667 0.146386
7 1 0.108802 0.528768 0.0503084
247 1 0.457107 0.769564 0.0793249
262 1 0.130432 0.850084 0.180912
242 1 0.381922 0.732478 0.0791456
246 1 0.612395 0.928276 0.142262
34 1 0.4717 0.576991 0.151545
59 1 0.203679 0.856401 0.184336
335 1 0.348202 0.664318 0.14726
301 1 0.513717 0.645198 0.15318
465 1 0.348893 0.556911 0.0232101
82 1 0.154519 0.524152 0.00299751
408 1 0.334173 0.825896 0.00416857
180 1 0.718257 0.998422 0.356522
371 1 0.716635 0.652901 0.355524
441 1 0.00447728 0.809691 0.278626
413 1 0.943285 0.667992 0.3499
270 1 0.357484 0.755511 0.331929
382 1 0.605869 0.799953 0.306862
323 1 0.155416 0.542009 0.271511
33 1 0.679567 0.866708 0.244542
414 1 0.622398 0.611896 0.326951
183 1 0.644588 0.862021 0.323333
485 1 0.882789 0.526522 0.335863
367 1 0.638073 0.932402 0.254677
191 1 0.954804 0.582953 0.320919
39 1 0.503321 0.849115 0.340656
46 1 0.788798 0.596563 0.347343
409 1 0.0150903 0.929288 0.263644
52 1 0.746984 0.541273 0.338702
285 1 0.42185 0.912461 0.253598
361 1 0.310232 0.782999 0.266168
420 1 0.47997 0.576375 0.375111
375 1 0.515937 0.765123 0.231463
168 1 0.262483 0.837336 0.231583
13 1 0.580049 0.544722 0.363917
230 1 0.360568 0.966209 0.237162
198 1 0.0581254 0.847124 0.354686
283 1 0.702155 0.939852 0.224066
50 1 0.475943 0.767855 0.295104
188 1 0.939296 0.879213 0.29022
2 1 0.798329 0.933745 0.248381
20 1 0.60822 0.586952 0.244106
398 1 0.171313 0.793263 0.366608
359 1 0.0299281 0.724157 0.286751
75 1 0.124819 0.737176 0.377049
236 1 0.0680851 0.686173 0.360963
294 1 0.292059 0.67648 0.360828
5 1 0.0396549 0.600895 0.228236
490 1 0.271378 0.982309 0.298155
30 1 0.929337 0.973088 0.342142
60 1 0.452515 0.810322 0.381365
78 1 0.771908 0.784101 0.3644
311 1 0.669736 0.777137 0.224351
419 1 0.701165 0.531761 0.212389
106 1 0.671887 0.995314 0.293061
463 1 0.634556 0.686703 0.384752
324 1 0.666274 0.848385 0.394192
388 1 0.864012 0.992206 0.214305
350 1 0.747272 0.763967 0.202992
167 1 0.682119 0.991814 0.494771
205 1 0.550662 0.666848 0.580609
254 1 0.0911713 0.820893 0.573819
358 1 0.160847 0.822648 0.445152
360 1 0.895337 0.965287 0.506246
12 1 0.63209 0.772063 0.591332
102 1 0.242766 0.721213 0.57946
225 1 0.22178 0.895516 0.494059
129 1 0.716976 0.736083 0.40128
97 1 0.789065 0.827035 0.521406
368 1 0.624876 0.532944 0.42945
387 1 0.935047 0.859745 0.465573
272 1 0.381921 0.543802 0.424742
505 1 0.0977714 0.940443 0.458987
176 1 0.444978 0.530226 0.482326
310 1 0.554691 0.636566 0.499915
111 1 0.0872185 0.949537 0.552555
259 1 0.497037 0.718607 0.458938
399 1 0.830552 0.897796 0.444399
25 1 0.712748 0.790036 0.491265
384 1 0.0782598 0.570508 0.521693
165 1 0.166234 0.531026 0.546307
228 1 0.599537 0.810739 0.47202
369 1 0.859438 0.525047 0.531572
63 1 0.0659169 0.892072 0.420697
448 1 0.639512 0.579768 0.525711
79 1 0.574716 0.71287 0.43173
318 1 0.6416 0.857298 0.513332
332 1 0.099361 0.671013 0.569631
356 1 0.867495 0.824917 0.460098
322 1 0.249243 0.514044 0.493907
291 1 0.500648 0.705983 0.53083
201 1 0.171055 0.677748 0.555984
127 1 0.864487 0.749357 0.418142
308 1 0.647939 0.654976 0.5254
162 1 0.0265625 0.628597 0.413371
10 1 0.346288 0.621554 0.425771
349 1 0.093577 0.562951 0.43214
252 1 0.179087 0.971189 0.421254
114 1 0.217483 0.675769 0.426462
186 1 0.290463 0.900178 0.531723
41 1 0.285461 0.575535 0.463087
45 1 0.318828 0.512978 0.542822
344 1 0.768937 0.958947 0.412116
386 1 0.973013 0.93568 0.47372
290 1 0.687874 0.943486 0.451723
3 1 0.930499 0.690002 0.421266
224 1 0.734945 0.510427 0.553085
496 1 0.0578415 0.737959 0.579241
65 1 0.277264 0.875513 0.59944
425 1 0.869301 0.724406 0.589868
223 1 0.777498 0.573188 0.589049
51 1 0.747195 0.690133 0.64089
432 1 0.820944 0.615447 0.652589
352 1 0.514973 0.999652 0.689684
195 1 0.386572 0.625351 0.630624
304 1 0.35999 0.635327 0.714985
184 1 0.210508 0.57032 0.618236
453 1 0.812825 0.860866 0.607272
278 1 0.850096 0.913158 0.679389
136 1 0.912318 0.507198 0.751463
238 1 0.200487 0.988267 0.749304
120 1 0.434858 0.803359 0.64008
412 1 0.811142 0.884984 0.763672
115 1 0.287653 0.769177 0.773479
428 1 0.0393018 0.659596 0.639034
56 1 0.516898 0.902293 0.762833
337 1 0.585593 0.768457 0.736607
458 1 0.324333 0.753969 0.699433
141 1 0.148118 0.850268 0.714256
494 1 0.206367 0.502258 0.647273
208 1 0.645333 0.940054 0.778337
103 1 0.92261 0.770008 0.722378
234 1 0.151234 0.829182 0.794409
250 1 0.437688 0.681245 0.645422
502 1 0.174456 0.686958 0.663451
364 1 0.197279 0.765276 0.780119
256 1 0.887247 0.657665 0.65119
312 1 0.804995 0.951675 0.600707
499 1 0.555771 0.769694 0.642766
53 1 0.145238 0.962626 0.703922
29 1 0.996431 0.76508 0.627326
401 1 0.247787 0.638215 0.66954
484 1 0.917371 0.782816 0.604094
54 1 0.362334 0.538095 0.747073
235 1 0.458148 0.549954 0.768543
174 1 0.111273 0.949559 0.627856
446 1 0.647049 0.71412 0.754888
370 1 0.509858 0.702485 0.643195
16 1 0.270529 0.802593 0.615216
284 1 0.0220686 0.577712 0.753481
501 1 0.67451 0.679304 0.676083
351 1 0.403012 0.748406 0.689635
69 1 0.569935 0.949391 0.761934
122 1 0.968339 0.639389 0.62644
471 1 0.870737 0.804382 0.775975
135 1 0.162615 0.689361 0.749208
321 1 0.989763 0.637857 0.7963
27 1 0.173107 0.843142 0.64873
202 1 0.62643 0.685088 0.602066
156 1 0.0618931 0.958917 0.964936
138 1 0.967745 0.521893 0.810278
379 1 0.622291 0.621063 0.821174
172 1 0.334571 0.760587 0.88667
442 1 0.0897681 0.885414 0.966291
48 1 0.304433 0.92114 0.888096
354 1 0.529046 0.641925 0.821701
461 1 0.665647 0.795958 0.878236
456 1 0.461821 0.66871 0.969353
90 1 0.426475 0.87212 0.870368
276 1 0.649996 0.50967 0.868114
479 1 0.856427 0.663857 0.885497
347 1 0.375135 0.926745 0.86942
147 1 0.460433 0.668592 0.880302
117 1 0.575955 0.831004 0.805275
500 1 0.526881 0.842101 0.879227
336 1 0.465451 0.57913 0.848087
282 1 0.750038 0.671134 0.96552
182 1 0.121114 0.794686 0.958473
338 1 0.704029 0.723978 0.858319
280 1 0.666279 0.86073 0.828135
124 1 0.451186 0.544511 0.934441
227 1 0.139899 0.996388 0.841122
327 1 0.712837 0.568666 0.84613
151 1 0.267536 0.8159 0.929268
373 1 0.851923 0.791405 0.849902
422 1 0.787605 0.898446 0.917721
437 1 0.297054 0.604488 0.806946
212 1 0.94476 0.629619 0.980145
175 1 0.183568 0.688193 0.962948
113 1 0.86855 0.56419 0.970662
149 1 0.0788789 0.681197 0.878183
222 1 0.0777684 0.628456 0.803196
185 1 0.800855 0.944291 0.842192
241 1 0.274712 0.999209 0.882405
155 1 0.181937 0.887814 0.844603
263 1 0.117198 0.92518 0.902296
226 1 0.929802 0.649803 0.87982
348 1 0.699262 0.638615 0.86926
404 1 0.990306 0.533001 0.977665
303 1 0.802142 0.829348 0.886376
139 1 0.783967 0.710055 0.888899
395 1 0.185882 0.766805 0.954643
200 1 0.314996 0.713016 0.842901
66 1 0.511996 0.941761 0.912614
169 1 0.420321 0.820187 0.952684
203 1 0.326529 0.531843 0.822692
194 1 0.231326 0.965086 0.984164
466 1 0.0598982 0.647187 0.93044
94 1 0.988803 0.997141 0.946197
331 1 0.67393 0.654537 0.985576
436 1 0.101962 0.7038 0.987767
316 1 0.280597 0.588586 0.982702
509 1 0.530769 0.698638 0.99423
