ITEM: TIMESTEP
300
ITEM: NUMBER OF ATOMS
512
ITEM: BOX BOUNDS pp pp pp
0.0000000000000000e+00 1.7235477520000000e+01
0.0000000000000000e+00 1.7235477520000000e+01
0.0000000000000000e+00 1.7235477520000000e+01
ITEM: ATOMS id type xs ys zs
392 1 0.882373 0.157819 0.14381
497 1 0.973823 0.156813 0.0300378
99 1 0.324256 0.364031 0.0327707
277 1 0.147307 0.310304 0.0484003
196 1 0.715538 0.161812 0.0403131
204 1 0.401941 0.489546 0.079245
276 1 0.852704 0.282262 0.190548
340 1 0.455482 0.432472 0.0265025
148 1 0.437682 0.124287 0.15052
263 1 0.370075 0.144278 0.125631
61 1 0.867176 0.4647 0.125313
52 1 0.715851 0.0981675 0.187533
378 1 0.00198424 0.465214 0.0179629
481 1 0.962193 0.162727 0.171635
325 1 0.715948 0.112154 0.106208
500 1 0.64708 0.266488 0.149993
34 1 0.634002 0.180334 0.036579
338 1 0.826962 0.346628 0.0305605
132 1 0.822264 0.388526 0.145806
296 1 0.338144 0.165577 0.0590702
104 1 0.0413593 0.483234 0.13765
445 1 0.479453 0.416854 0.131173
163 1 0.464487 0.349577 0.0192353
161 1 0.242827 0.385679 0.0582639
493 1 0.117632 0.48161 0.10587
367 1 0.740128 0.0291766 0.0760802
303 1 0.083886 0.0609996 0.126154
322 1 0.106711 0.458118 0.0290315
478 1 0.521856 0.340345 0.152801
22 1 0.345496 0.438113 0.0606309
376 1 0.165636 0.32939 0.123709
388 1 0.455344 0.0456917 0.156224
43 1 0.937795 0.245867 0.149406
459 1 0.595001 0.348058 0.161629
406 1 0.347968 0.272632 0.0382783
15 1 0.0369329 0.160678 0.0973305
270 1 0.326932 0.00968934 0.124235
435 1 0.38682 0.318716 0.105624
55 1 0.874117 0.152105 0.0469326
114 1 0.163809 0.0527196 0.152796
511 1 0.613286 0.240897 0.0798965
449 1 0.211302 0.333735 0.0110554
199 1 0.0888047 0.231465 0.132628
145 1 0.215111 0.441066 0.134025
185 1 0.290064 0.0851019 0.101321
328 1 0.0582113 0.349475 0.0163406
152 1 0.474587 0.0354553 0.0186451
33 1 0.795015 0.00654544 0.0348188
407 1 0.1985 0.470057 0.191683
411 1 0.976614 0.371913 0.00669961
229 1 0.786051 0.194281 0.00460827
59 1 0.000221492 0.0794702 0.000215417
23 1 0.0056892 0.488982 0.205823
233 1 0.916417 0.495822 0.215427
339 1 0.867142 0.0503135 0.200425
368 1 0.917621 0.216585 0.295958
271 1 0.904092 0.116895 0.238241
315 1 0.672828 0.318696 0.207299
92 1 0.312244 0.1406 0.323248
244 1 0.12959 0.0999803 0.316147
157 1 0.167206 0.483278 0.27714
160 1 0.466167 0.116176 0.242965
249 1 0.514275 0.491436 0.277417
488 1 0.481497 0.38138 0.316527
60 1 0.74438 0.102608 0.265563
483 1 0.114837 0.28892 0.352151
417 1 0.442084 0.260382 0.274776
343 1 0.0861409 0.00969645 0.259796
400 1 0.0655523 0.227594 0.305032
335 1 0.715555 0.356088 0.264886
58 1 0.315014 0.196883 0.385299
508 1 0.963295 0.241807 0.338797
333 1 0.568018 0.175853 0.2956
24 1 0.148863 0.208241 0.242629
46 1 0.681823 0.425214 0.289395
72 1 0.547696 0.383378 0.351718
462 1 0.827352 0.259344 0.274022
159 1 0.339227 0.433792 0.32295
166 1 0.308707 0.0664301 0.303378
259 1 0.85265 0.0544888 0.357271
144 1 0.119034 0.44959 0.349085
213 1 0.581732 0.100988 0.264587
281 1 0.587549 0.24655 0.276631
243 1 0.371723 0.380325 0.299604
444 1 0.499961 0.327561 0.25123
81 1 0.807888 0.342404 0.291619
477 1 0.168927 0.155714 0.277482
480 1 0.086646 0.370693 0.359456
42 1 0.627404 0.0263104 0.298443
95 1 0.0571592 0.159524 0.351397
451 1 0.723639 0.108109 0.336329
31 1 0.485072 0.196496 0.262988
309 1 0.9812 0.398342 0.354382
173 1 0.987488 0.475813 0.310344
37 1 0.671108 0.247348 0.223354
286 1 0.369246 0.276563 0.222453
2 1 0.262973 0.0321908 0.365922
327 1 0.620466 0.48886 0.292894
225 1 0.00408065 0.0385276 0.392286
382 1 0.678416 0.149438 0.399125
391 1 0.0982024 0.209986 0.204809
91 1 0.11255 0.474841 0.435538
101 1 0.344375 0.218772 0.482755
448 1 0.113464 0.179311 0.429822
297 1 0.370632 0.337515 0.42674
41 1 0.838492 0.410986 0.467604
86 1 0.595598 0.0505892 0.402196
492 1 0.252519 0.0750233 0.457129
287 1 0.0528571 0.170512 0.437614
51 1 0.777211 0.0950851 0.496249
80 1 0.115011 0.286734 0.432507
386 1 0.0146032 0.0533837 0.553732
112 1 0.0712715 0.424314 0.481743
469 1 0.537865 0.452907 0.429394
76 1 0.500866 0.482866 0.572171
74 1 0.336665 0.406297 0.459524
189 1 0.161412 0.139799 0.582682
231 1 0.981461 0.209552 0.418859
217 1 0.469255 0.269912 0.512802
168 1 0.540799 0.0171913 0.530164
342 1 0.604312 0.0641411 0.556533
398 1 0.14301 0.022109 0.503942
424 1 0.592726 0.342046 0.536499
40 1 0.919415 0.421636 0.517916
288 1 0.594174 0.217463 0.473976
505 1 0.0766385 0.079669 0.57062
345 1 0.725572 0.248948 0.426794
284 1 0.623835 0.498774 0.551283
195 1 0.678814 0.321514 0.53251
84 1 0.406888 0.473517 0.462067
351 1 0.803508 0.490862 0.451335
89 1 0.511335 0.197708 0.439698
405 1 0.71613 0.301596 0.47789
171 1 0.561191 0.138802 0.579033
305 1 0.771257 0.106096 0.563464
369 1 0.972487 0.341368 0.409406
394 1 0.0581851 0.264439 0.552997
250 1 0.599009 0.400586 0.447067
447 1 0.942371 0.427762 0.432715
313 1 0.402737 0.260898 0.445579
119 1 0.702421 0.425968 0.5155
222 1 0.0111599 0.404109 0.54379
13 1 0.846214 0.325134 0.452697
300 1 0.043176 0.327052 0.475978
370 1 0.77349 0.437805 0.540923
264 1 0.943409 0.252278 0.457108
79 1 0.455653 0.425706 0.492712
224 1 0.667836 0.0896916 0.479484
302 1 0.0833713 0.431188 0.565706
357 1 0.0873008 0.0031282 0.593584
273 1 0.594548 0.0142877 0.46768
475 1 0.893567 0.375515 0.595201
257 1 0.779703 0.219187 0.411016
220 1 0.800283 0.111431 0.416778
491 1 0.37281 0.136477 0.785641
269 1 0.861688 0.0861825 0.625496
482 1 0.256141 0.153111 0.717853
295 1 0.823451 0.0274242 0.693337
510 1 0.291688 0.472527 0.741658
393 1 0.48399 0.398025 0.655486
6 1 0.982907 0.2892 0.756192
272 1 0.667357 0.249013 0.624295
473 1 0.397172 0.0641382 0.631942
19 1 0.887947 0.174246 0.669408
87 1 0.77691 0.295616 0.720575
430 1 0.57177 0.164708 0.704921
372 1 0.448716 0.131975 0.797049
107 1 0.719345 0.212921 0.748605
187 1 0.773233 0.412749 0.618317
415 1 0.192612 0.214277 0.618236
90 1 0.376288 0.0134668 0.709909
307 1 0.3278 0.192476 0.739734
202 1 0.35012 0.484618 0.779591
512 1 0.518769 0.142496 0.634216
293 1 0.0867248 0.236922 0.774351
88 1 0.53122 0.144228 0.78273
454 1 0.277653 0.382783 0.632277
336 1 0.297964 0.452222 0.643706
260 1 0.875715 0.307407 0.648684
381 1 0.983532 0.172607 0.667176
238 1 0.0721296 0.0346934 0.760632
490 1 0.473481 0.00642184 0.603889
129 1 0.711494 0.44258 0.667601
403 1 0.859208 0.243816 0.636995
215 1 0.284384 0.0338079 0.779495
498 1 0.929201 0.0264748 0.625518
364 1 0.257076 0.217427 0.670134
190 1 0.118108 0.381421 0.65412
248 1 0.711907 0.347364 0.700905
210 1 0.298499 0.32135 0.663973
494 1 0.993716 0.204795 0.731774
320 1 0.771352 0.0569898 0.762301
73 1 0.288949 0.283633 0.738001
433 1 0.650727 0.209987 0.696602
420 1 0.532643 0.375987 0.602957
123 1 0.0640808 0.309384 0.715976
11 1 0.0451656 0.0717563 0.687079
219 1 0.0290027 0.353963 0.607231
62 1 0.477427 0.0888589 0.645387
346 1 0.14015 0.297537 0.608741
504 1 0.850568 0.0565511 0.984877
450 1 0.645492 0.320148 0.959621
121 1 0.251184 0.197529 0.890698
418 1 0.82405 0.0180198 0.917379
178 1 0.573472 0.0515053 0.940438
54 1 0.315017 0.347907 0.857188
234 1 0.244865 0.135906 0.809541
507 1 0.207274 0.478563 0.872175
193 1 0.537469 0.151105 0.856398
434 1 0.0719369 0.0179929 0.973432
1 1 0.0886319 0.0799734 0.834872
347 1 0.0945404 0.178987 0.977699
353 1 0.937054 0.0773413 0.832569
464 1 0.555146 0.372633 0.933942
29 1 0.168984 0.166722 0.929506
209 1 0.338581 0.216703 0.914544
422 1 0.500396 0.0783486 0.943493
214 1 0.534154 0.452806 0.977704
261 1 0.445042 0.392879 0.820226
265 1 0.379696 0.0456008 0.990628
314 1 0.398639 0.252678 0.97466
256 1 0.73826 0.469157 0.958429
329 1 0.00166675 0.107565 0.862128
106 1 0.615569 0.132073 0.869644
153 1 0.919136 0.374857 0.943958
389 1 0.667997 0.37512 0.811578
71 1 0.347323 0.491286 0.964948
458 1 0.252607 0.435397 0.801618
113 1 0.850333 0.296394 0.949364
432 1 0.704405 0.446227 0.825374
211 1 0.649952 0.0500943 0.987992
4 1 0.349054 0.415387 0.842649
103 1 0.837231 0.172132 0.8458
267 1 0.323865 0.268226 0.828267
363 1 0.214699 0.407099 0.896343
98 1 0.671381 0.0648024 0.907488
191 1 0.793534 0.254474 0.916092
460 1 0.272978 0.358123 0.932101
136 1 0.664248 0.352775 0.880618
156 1 0.146741 0.358217 0.919183
467 1 0.503497 0.3483 0.868261
446 1 0.444675 0.480774 0.83823
436 1 0.958954 0.0205748 0.948777
49 1 0.431996 0.0500351 0.871792
321 1 0.633296 0.24533 0.978454
141 1 0.135253 0.144795 0.852507
421 1 0.908755 0.355016 0.846555
221 1 0.707122 0.442099 0.893609
245 1 0.991081 0.208443 0.981903
82 1 0.947141 0.279413 0.817329
8 1 0.766896 0.226056 0.83108
487 1 0.828885 0.0981417 0.830383
486 1 0.371738 0.475965 0.900102
258 1 0.435236 0.307013 0.949041
237 1 0.137699 0.106045 0.986123
18 1 0.520742 0.414429 0.805392
275 1 0.781668 0.304016 0.801999
431 1 0.945583 0.49812 0.80185
68 1 0.957003 0.955345 0.186265
192 1 0.669927 0.955517 0.143636
456 1 0.438771 0.958764 0.133123
203 1 0.934014 0.511202 0.0010292
489 1 0.950862 0.592182 0.0919332
410 1 0.287195 0.68046 0.000762477
419 1 0.769189 0.608751 0.116732
14 1 0.159236 0.648852 0.146051
246 1 0.335188 0.740738 0.0510621
285 1 0.19679 0.704895 0.123313
27 1 0.212028 0.687651 0.0506773
348 1 0.521309 0.614909 0.114146
208 1 0.495179 0.763647 0.078116
255 1 0.267797 0.905521 0.0961181
67 1 0.922064 0.879284 0.0227002
373 1 0.743572 0.776703 0.118575
409 1 0.831443 0.910928 0.134245
230 1 0.339127 0.934521 0.157327
331 1 0.893344 0.697984 0.0389351
48 1 0.156944 0.924951 0.0874023
66 1 0.752061 0.944616 0.104987
164 1 0.525561 0.977809 0.173544
165 1 0.411585 0.553305 0.177419
485 1 0.88147 0.614465 0.104917
316 1 0.966131 0.6873 0.0982327
194 1 0.205285 0.950341 0.190523
242 1 0.211322 0.888899 0.150777
457 1 0.615293 0.509073 0.00237763
169 1 0.43786 0.623665 0.114657
198 1 0.255912 0.777933 0.186547
139 1 0.422514 0.708883 0.0623068
125 1 0.802888 0.830313 0.102015
292 1 0.447297 0.962384 0.056615
83 1 0.975587 0.829849 0.0522071
108 1 0.820619 0.532103 0.100628
396 1 0.00377857 0.846964 0.128662
181 1 0.685707 0.709097 0.167812
180 1 0.900101 0.910277 0.196806
452 1 0.529139 0.83019 0.054701
105 1 0.489651 0.888952 0.0293584
326 1 0.850179 0.893528 0.0449267
146 1 0.240461 0.856633 0.0485837
395 1 0.0971904 0.924272 0.0257028
350 1 0.481079 0.823769 0.173973
44 1 0.763065 0.697277 0.0889346
404 1 0.00988614 0.659933 0.0273672
116 1 0.110907 0.518869 0.176118
47 1 0.0322411 0.977279 0.184835
20 1 0.740704 0.603626 0.194755
176 1 0.54091 0.738859 0.191047
75 1 0.0886201 0.794213 0.354463
126 1 0.831499 0.829619 0.215695
324 1 0.902146 0.765225 0.249367
197 1 0.584683 0.956836 0.257682
63 1 0.0607906 0.967342 0.347058
93 1 0.549297 0.699961 0.281739
85 1 0.0810671 0.651827 0.296248
239 1 0.20746 0.6336 0.28229
317 1 0.523587 0.561356 0.241319
134 1 0.361193 0.893015 0.225372
137 1 0.636477 0.733793 0.301602
366 1 0.189779 0.828378 0.211642
77 1 0.864043 0.584721 0.27768
142 1 0.574799 0.890112 0.361044
65 1 0.311352 0.753429 0.399834
266 1 0.813536 0.996942 0.284313
140 1 0.42389 0.872775 0.387436
16 1 0.375282 0.589304 0.361538
188 1 0.0583069 0.744537 0.30096
506 1 0.054894 0.500235 0.264214
359 1 0.873437 0.984831 0.227268
509 1 0.437997 0.861004 0.232388
291 1 0.179848 0.659966 0.216867
311 1 0.687868 0.750474 0.243426
35 1 0.590587 0.574316 0.207975
251 1 0.230942 0.948038 0.331079
102 1 0.401735 0.659456 0.312683
158 1 0.522322 0.93947 0.331799
283 1 0.751792 0.801459 0.260511
401 1 0.200738 0.604061 0.392937
183 1 0.668888 0.919534 0.215556
150 1 0.529786 0.743334 0.331338
301 1 0.484023 0.651203 0.329665
298 1 0.928521 0.614332 0.253871
330 1 0.0289922 0.911221 0.383025
463 1 0.736731 0.809283 0.364461
262 1 0.856905 0.908844 0.302714
380 1 0.697322 0.70949 0.391249
384 1 0.278679 0.562375 0.255847
205 1 0.535674 0.588652 0.382479
154 1 0.979805 0.553683 0.341888
50 1 0.721383 0.869549 0.314326
128 1 0.666859 0.569132 0.229165
179 1 0.969078 0.696024 0.267941
21 1 0.0129674 0.749954 0.248109
10 1 0.437304 0.868957 0.308063
362 1 0.159404 0.946593 0.266222
476 1 0.86112 0.829634 0.314955
440 1 0.36591 0.553363 0.252083
355 1 0.707795 0.961586 0.290442
247 1 0.706349 0.939577 0.386336
385 1 0.529649 0.801816 0.399414
390 1 0.606254 0.717652 0.20414
428 1 0.834577 0.716325 0.580919
438 1 0.561681 0.54491 0.530182
290 1 0.00123336 0.738505 0.443225
358 1 0.152085 0.827461 0.489759
184 1 0.195836 0.621949 0.493349
399 1 0.890104 0.856896 0.465905
375 1 0.782176 0.996962 0.520141
349 1 0.937779 0.550619 0.414711
453 1 0.630597 0.775021 0.497405
371 1 0.728272 0.628222 0.492467
39 1 0.855782 0.818213 0.413225
167 1 0.736293 0.794347 0.521162
3 1 0.947111 0.689112 0.483466
236 1 0.931199 0.609232 0.458436
120 1 0.24612 0.650143 0.544164
312 1 0.0524656 0.920554 0.455803
279 1 0.17869 0.776623 0.423219
341 1 0.862082 0.870353 0.563753
387 1 0.126141 0.730667 0.479156
278 1 0.358959 0.668615 0.42096
499 1 0.325244 0.642291 0.598445
254 1 0.791667 0.522312 0.546727
228 1 0.560354 0.694284 0.479764
427 1 0.412145 0.555804 0.41899
253 1 0.00545169 0.977779 0.469451
310 1 0.696581 0.647069 0.432621
332 1 0.354512 0.840704 0.597757
127 1 0.969738 0.760269 0.534149
323 1 0.77872 0.566304 0.486868
356 1 0.884585 0.781181 0.574759
232 1 0.969183 0.98742 0.559697
294 1 0.381087 0.745697 0.446781
28 1 0.761478 0.694464 0.533129
218 1 0.23892 0.989223 0.4447
308 1 0.880238 0.58646 0.516397
470 1 0.695811 0.783886 0.428443
383 1 0.472756 0.786247 0.513064
474 1 0.672232 0.816868 0.581725
252 1 0.160964 0.746517 0.559605
12 1 0.974752 0.630067 0.595371
170 1 0.190772 0.553954 0.530872
174 1 0.142188 0.927255 0.572673
9 1 0.0930657 0.867185 0.518641
155 1 0.512267 0.629572 0.488338
441 1 0.777325 0.951594 0.461064
319 1 0.113598 0.989219 0.430191
97 1 0.0121158 0.707999 0.57771
361 1 0.483535 0.734832 0.437696
162 1 0.527183 0.840813 0.480592
344 1 0.651933 0.874033 0.415145
496 1 0.231521 0.860546 0.469354
240 1 0.61799 0.88369 0.581986
115 1 0.255002 0.859774 0.596885
352 1 0.627206 0.931929 0.486037
337 1 0.396805 0.589706 0.598271
413 1 0.255295 0.796704 0.403506
365 1 0.573593 0.518595 0.412379
124 1 0.353012 0.703334 0.728905
268 1 0.13588 0.698436 0.62271
274 1 0.753034 0.978834 0.752543
30 1 0.715512 0.980084 0.613482
414 1 0.788929 0.792352 0.722674
465 1 0.417885 0.539811 0.737612
360 1 0.857151 0.816647 0.657639
151 1 0.458152 0.716525 0.757335
425 1 0.804066 0.741067 0.656502
374 1 0.456881 0.897592 0.792058
110 1 0.676894 0.757787 0.660202
109 1 0.807372 0.892504 0.648643
17 1 0.896142 0.853154 0.697947
455 1 0.700055 0.663715 0.624998
503 1 0.994643 0.793569 0.700401
289 1 0.438118 0.513173 0.641293
377 1 0.0505786 0.745131 0.650372
207 1 0.665692 0.578868 0.668317
466 1 0.811606 0.567732 0.689116
122 1 0.846677 0.506016 0.643765
149 1 0.184738 0.845687 0.619244
318 1 0.479409 0.588558 0.733547
461 1 0.682328 0.576469 0.760172
36 1 0.0762207 0.613714 0.763566
201 1 0.0719014 0.654477 0.699284
38 1 0.0792659 0.571381 0.624197
177 1 0.149883 0.540827 0.6499
479 1 0.665777 0.741009 0.73868
100 1 0.815822 0.969085 0.630298
70 1 0.313965 0.735638 0.788039
379 1 0.202291 0.599379 0.799456
484 1 0.953223 0.813996 0.765802
223 1 0.731709 0.611677 0.692342
117 1 0.647951 0.935472 0.774503
56 1 0.364007 0.828576 0.669431
306 1 0.676536 0.948501 0.688735
172 1 0.304936 0.702325 0.657808
131 1 0.463516 0.835345 0.718185
397 1 0.775487 0.558383 0.777536
64 1 0.292797 0.975142 0.736213
138 1 0.931137 0.593646 0.693098
25 1 0.55168 0.620345 0.635544
429 1 0.670114 0.520107 0.614083
96 1 0.516804 0.758475 0.795065
412 1 0.796703 0.804856 0.797261
439 1 0.525231 0.953746 0.797077
502 1 0.900998 0.560851 0.617602
78 1 0.489132 0.650361 0.615751
143 1 0.487305 0.590463 0.974672
416 1 0.485107 0.813822 0.847742
133 1 0.637779 0.875903 0.910138
94 1 0.959286 0.771691 0.903358
118 1 0.903588 0.760611 0.946157
402 1 0.857504 0.667471 0.95739
472 1 0.323058 0.992559 0.95014
130 1 0.509727 0.878792 0.949917
45 1 0.307239 0.792831 0.963277
216 1 0.413021 0.595063 0.923225
147 1 0.394578 0.706486 0.806098
304 1 0.0904102 0.586769 0.837445
241 1 0.233831 0.671326 0.935395
206 1 0.514956 0.798077 0.925979
32 1 0.807832 0.571053 0.845501
495 1 0.448298 0.973492 0.842383
7 1 0.222664 0.581049 0.928418
57 1 0.627951 0.95857 0.91995
26 1 0.846712 0.628351 0.896477
471 1 0.812669 0.899199 0.83569
280 1 0.65812 0.872476 0.817615
226 1 0.595439 0.543722 0.851655
468 1 0.170233 0.547686 0.842046
354 1 0.336128 0.928006 0.92333
200 1 0.215155 0.649024 0.850006
443 1 0.648876 0.52329 0.805145
53 1 0.320653 0.884646 0.877172
437 1 0.0229863 0.851631 0.897522
212 1 0.932291 0.535775 0.881938
175 1 0.856787 0.932265 0.891262
111 1 0.0931602 0.854006 0.974454
501 1 0.675783 0.747894 0.812239
182 1 0.0445906 0.916197 0.802865
69 1 0.480514 0.746659 0.969702
186 1 0.732211 0.790367 0.835869
408 1 0.090792 0.813175 0.811655
235 1 0.158978 0.871371 0.872766
135 1 0.936077 0.982614 0.86365
334 1 0.39679 0.800543 0.878209
423 1 0.525246 0.676742 0.961538
282 1 0.578304 0.557807 0.925336
426 1 0.528899 0.929124 0.893544
227 1 0.309979 0.806298 0.856198
442 1 0.0243941 0.989007 0.874703
299 1 0.352118 0.581297 0.974724
5 1 0.963999 0.588577 0.99746
