ITEM: TIMESTEP
1200
ITEM: NUMBER OF ATOMS
512
ITEM: BOX BOUNDS pp pp pp
0.0000000000000000e+00 1.7235477520000000e+01
0.0000000000000000e+00 1.7235477520000000e+01
0.0000000000000000e+00 1.7235477520000000e+01
ITEM: ATOMS id type xs ys zs
265 1 0.258 0.165219 0.140183
406 1 0.438324 0.405145 0.139052
47 1 0.238879 0.116032 0.088237
366 1 0.0726803 0.141567 0.133968
163 1 0.44791 0.471311 0.0951348
487 1 0.706904 0.0153017 0.0288173
160 1 0.501509 0.0744676 0.0828728
77 1 0.957973 0.413094 0.0715712
22 1 0.623723 0.296894 0.165202
164 1 0.584496 0.203068 0.107097
158 1 0.519468 0.376649 0.159459
157 1 0.0830855 0.39821 0.0344282
341 1 0.706276 0.192127 0.170965
193 1 0.818188 0.254739 0.0922015
192 1 0.857522 0.0537046 0.0770561
301 1 0.462404 0.163719 0.0621597
106 1 0.665492 0.0494987 0.0864992
197 1 0.469752 0.0190245 0.152993
405 1 0.932941 0.163737 0.162501
148 1 0.557782 0.039306 0.14891
464 1 0.40688 0.225896 0.0359173
435 1 0.551133 0.188924 0.186412
211 1 0.0759378 0.236445 0.091785
209 1 0.358251 0.348347 0.126486
353 1 0.0819506 0.383508 0.136752
424 1 0.215346 0.0585954 0.0435618
188 1 0.703309 0.172839 0.073089
376 1 0.876987 0.423986 0.0337788
85 1 0.91833 0.152859 0.0762559
133 1 0.673526 0.221448 0.0102964
497 1 0.0444793 0.293676 0.135186
289 1 0.853244 0.403004 0.139075
61 1 0.709357 0.405573 0.0845406
251 1 0.134032 0.437449 0.156829
365 1 0.00620387 0.3966 0.135824
255 1 0.288373 0.488694 0.167245
378 1 0.22696 0.434494 0.131464
87 1 0.781196 0.386474 0.0721772
166 1 0.129044 0.054675 0.0188474
70 1 0.404322 0.323627 0.0722961
81 1 0.505206 0.486601 0.0458395
363 1 0.753121 0.295522 0.0803821
95 1 0.675534 0.448775 0.148266
339 1 0.280121 0.202808 0.0728714
427 1 0.293766 0.251863 0.180641
371 1 0.615476 0.356664 0.104108
423 1 0.760871 0.273791 0.170386
377 1 0.765222 0.091156 0.0901579
249 1 0.157806 0.431651 0.00856212
418 1 0.0204433 0.46471 0.176451
26 1 0.546727 0.204917 0.0413663
407 1 0.242707 0.30121 0.0695666
504 1 0.868555 0.228628 0.0458308
350 1 0.911708 0.00269915 0.143648
417 1 0.0608396 0.0712764 0.148198
263 1 0.95484 0.0842495 0.0140401
452 1 0.533445 0.0056017 0.058359
244 1 0.0924939 0.00574506 0.177587
481 1 0.93534 0.0915636 0.199765
92 1 0.608699 0.00280748 0.314159
71 1 0.352573 0.462001 0.341033
272 1 0.235332 0.499697 0.328306
78 1 0.916711 0.312787 0.235144
181 1 0.455176 0.444679 0.23682
298 1 0.0433243 0.46473 0.258315
473 1 0.319336 0.00221254 0.33575
277 1 0.990145 0.244239 0.232273
13 1 0.504509 0.412109 0.365478
488 1 0.543012 0.341386 0.296542
221 1 0.404446 0.170577 0.302782
400 1 0.198151 0.300286 0.271967
142 1 0.449841 0.231491 0.328328
194 1 0.188472 0.160226 0.234557
288 1 0.583025 0.0847311 0.294989
229 1 0.725907 0.0772705 0.351306
161 1 0.445978 0.0588706 0.211018
42 1 0.795208 0.123275 0.296688
171 1 0.555745 0.111772 0.219618
333 1 0.777065 0.443048 0.297438
23 1 0.765912 0.148477 0.212774
223 1 0.617048 0.316799 0.304443
34 1 0.639891 0.414207 0.332452
420 1 0.447925 0.464341 0.351395
271 1 0.92033 0.0686025 0.302941
264 1 0.254195 0.105038 0.242988
116 1 0.353879 0.42369 0.261126
266 1 0.245525 0.412251 0.2111
444 1 0.379724 0.339363 0.227943
76 1 0.417775 0.0361256 0.26733
24 1 0.785777 0.364903 0.272554
297 1 0.033061 0.249023 0.335825
322 1 0.616817 0.101194 0.367542
273 1 0.707048 0.314055 0.258167
101 1 0.536695 0.30972 0.21511
455 1 0.832111 0.302091 0.227047
68 1 0.592513 0.459006 0.30618
492 1 0.168199 0.452845 0.287749
380 1 0.196186 0.385499 0.284377
281 1 0.314116 0.0549108 0.264935
207 1 0.84314 0.0471164 0.308935
258 1 0.349772 0.245447 0.252664
470 1 0.842547 0.164449 0.365525
232 1 0.0598573 0.250294 0.264836
342 1 0.71067 0.254721 0.337009
352 1 0.636493 0.23184 0.303888
372 1 0.587718 0.445399 0.389681
433 1 0.666399 0.255711 0.200903
309 1 0.89562 0.393754 0.213415
286 1 0.205183 0.289438 0.205721
386 1 0.00774747 0.123017 0.507125
257 1 0.755232 0.0466665 0.466744
100 1 0.00800215 0.120445 0.583399
11 1 0.217902 0.0812072 0.554767
267 1 0.296787 0.0291661 0.438086
5 1 0.797139 0.186765 0.419442
86 1 0.0130892 0.191304 0.473579
79 1 0.588985 0.0503989 0.442448
65 1 0.355269 0.0552196 0.586461
438 1 0.631219 0.193116 0.568675
140 1 0.251844 0.378228 0.52858
213 1 0.338147 0.403299 0.43337
336 1 0.353294 0.215714 0.542052
307 1 0.288614 0.180213 0.407319
112 1 0.799429 0.466513 0.499158
177 1 0.847472 0.247189 0.57909
235 1 0.4365 0.305869 0.503886
240 1 0.396984 0.0132092 0.503022
302 1 0.912982 0.445876 0.46293
320 1 0.756772 0.115326 0.42437
369 1 0.603215 0.480228 0.456873
109 1 0.0294359 0.368029 0.476404
210 1 0.288011 0.129842 0.538672
252 1 0.176385 0.00459034 0.485821
411 1 0.319647 0.422424 0.522946
447 1 0.586085 0.425102 0.531586
89 1 0.297022 0.0991521 0.428078
165 1 0.934878 0.45786 0.533138
391 1 0.982149 0.066169 0.446718
84 1 0.611601 0.265155 0.466462
462 1 0.542112 0.369528 0.557578
19 1 0.187696 0.474125 0.476747
129 1 0.567754 0.0573216 0.52384
241 1 0.612454 0.334097 0.51666
328 1 0.505891 0.310789 0.52014
287 1 0.0998721 0.350732 0.451018
231 1 0.786045 0.304071 0.468204
389 1 0.785397 0.290346 0.539672
323 1 0.852029 0.401636 0.44839
220 1 0.768501 0.415213 0.450471
14 1 0.398433 0.373872 0.50484
189 1 0.136278 0.050251 0.596096
254 1 0.184911 0.418917 0.578182
201 1 0.103818 0.480032 0.463355
503 1 0.50836 0.184685 0.57875
483 1 0.263749 0.324551 0.582575
67 1 0.602422 0.129858 0.549611
260 1 0.107139 0.26407 0.597045
4 1 0.305244 0.471922 0.409229
91 1 0.0465508 0.234189 0.421807
243 1 0.780801 0.263317 0.403204
269 1 0.0789144 0.0646863 0.709245
278 1 0.848517 0.0479018 0.739289
489 1 0.265413 0.354744 0.66572
190 1 0.00598753 0.366109 0.720717
293 1 0.41236 0.0710925 0.706861
355 1 0.756354 0.294039 0.605351
345 1 0.828161 0.455598 0.698336
508 1 0.671448 0.402707 0.673809
173 1 0.324291 0.264219 0.609226
491 1 0.68846 0.221651 0.629594
80 1 0.513813 0.424258 0.701604
74 1 0.644157 0.183462 0.754628
41 1 0.439898 0.188431 0.622797
446 1 0.594457 0.448521 0.683265
450 1 0.692795 0.472943 0.629373
43 1 0.471098 0.2324 0.703861
139 1 0.94908 0.402794 0.684986
453 1 0.878728 0.221525 0.643461
357 1 0.0695042 0.0934923 0.632312
296 1 0.9672 0.305933 0.77272
88 1 0.270858 0.485841 0.764792
152 1 0.74742 0.0992383 0.76743
478 1 0.343191 0.0417307 0.668395
300 1 0.885849 0.106412 0.72988
130 1 0.546237 0.35268 0.742656
64 1 0.48318 0.313286 0.717241
295 1 0.743821 0.18152 0.710277
451 1 0.644227 0.348805 0.729218
429 1 0.671125 0.244439 0.699429
422 1 0.630369 0.0275018 0.667916
498 1 0.97136 0.047445 0.613395
477 1 0.174904 0.377732 0.647308
494 1 0.323393 0.42538 0.762074
131 1 0.552249 0.043153 0.76672
56 1 0.438904 0.0722449 0.786077
146 1 0.0461994 0.304164 0.619317
469 1 0.208035 0.467297 0.796103
349 1 0.91438 0.462254 0.67457
370 1 0.483272 0.00233124 0.629711
219 1 0.36474 0.205752 0.673128
393 1 0.353827 0.216462 0.769308
245 1 0.879703 0.27957 0.733707
110 1 0.807664 0.193819 0.668905
373 1 0.76377 0.413024 0.734335
276 1 0.724888 0.294399 0.754654
431 1 0.0286275 0.294637 0.710905
315 1 0.791544 0.334653 0.768126
280 1 0.567809 0.128047 0.787729
102 1 0.429951 0.468245 0.780744
36 1 0.629749 0.0439955 0.742243
299 1 0.467515 0.187504 0.829404
117 1 0.494179 0.0621 0.870546
275 1 0.924348 0.388468 0.884897
49 1 0.602979 0.38851 0.985394
346 1 0.211242 0.242215 0.859809
467 1 0.0642551 0.456641 0.901225
314 1 0.170635 0.097049 0.859302
214 1 0.123887 0.477268 0.949399
187 1 0.78544 0.316506 0.855951
233 1 0.525189 0.131616 0.872036
396 1 0.943563 0.0382683 0.911693
54 1 0.464739 0.321981 0.885925
119 1 0.87123 0.27712 0.881768
48 1 0.197064 0.0342448 0.832856
196 1 0.590464 0.305995 0.951815
136 1 0.123845 0.447289 0.849434
90 1 0.464346 0.388875 0.849113
159 1 0.346898 0.0889342 0.891428
511 1 0.280064 0.195801 0.816872
238 1 0.165533 0.317806 0.86315
151 1 0.344373 0.222348 0.996811
96 1 0.605807 0.232164 0.987724
325 1 0.872836 0.0149848 0.884826
379 1 0.800021 0.419585 0.825371
490 1 0.375641 0.147208 0.935132
439 1 0.738403 0.117123 0.837498
261 1 0.887085 0.283262 0.978454
17 1 0.824358 0.0822745 0.851591
430 1 0.536893 0.258948 0.914871
443 1 0.0135533 0.322772 0.901153
392 1 0.892469 0.359168 0.970205
40 1 0.0181689 0.362695 0.838964
121 1 0.882207 0.444155 0.854871
170 1 0.0171483 0.384078 0.98867
512 1 0.777553 0.400603 0.9283
415 1 0.599518 0.115575 0.980203
343 1 0.215625 0.317668 0.93326
172 1 0.367105 0.043825 0.828111
468 1 0.450687 0.028013 0.936739
216 1 0.394694 0.292074 0.816572
360 1 0.970403 0.129608 0.808722
124 1 0.715583 0.460135 0.938216
403 1 0.986112 0.105607 0.867869
383 1 0.384956 0.377732 0.822435
340 1 0.532875 0.431609 0.932178
480 1 0.230325 0.143345 0.842264
138 1 0.461658 0.244973 0.894925
44 1 0.0241262 0.129568 0.994913
474 1 0.232418 0.352468 0.999367
217 1 0.550664 0.497474 0.863634
459 1 0.169388 0.0135419 0.908162
319 1 0.0965173 0.130587 0.996602
82 1 0.190184 0.598444 0.119587
145 1 0.185058 0.766655 0.081029
7 1 0.997491 0.632214 0.131045
8 1 0.641093 0.53131 0.162291
6 1 0.610255 0.606116 0.0284184
3 1 0.850198 0.97144 0.171364
402 1 0.718895 0.596689 0.147844
362 1 0.896534 0.794015 0.0871308
150 1 0.496886 0.579211 0.0350529
132 1 0.757726 0.536917 0.0293002
179 1 0.740735 0.608597 0.0670544
317 1 0.727494 0.68157 0.160586
390 1 0.420247 0.558129 0.105512
234 1 0.259193 0.610155 0.107253
143 1 0.752627 0.679405 0.02989
262 1 0.213694 0.733154 0.15059
306 1 0.226476 0.884307 0.176556
137 1 0.650324 0.912299 0.00135483
134 1 0.301914 0.652066 0.0497266
125 1 0.458306 0.875027 0.103266
440 1 0.481017 0.655492 0.0678321
283 1 0.999181 0.971088 0.108882
270 1 0.202577 0.65852 0.176112
107 1 0.608915 0.788935 0.140896
375 1 0.51 0.813213 0.16086
33 1 0.705661 0.800237 0.10441
493 1 0.120276 0.550387 0.0481851
442 1 0.229167 0.78462 0.0256183
326 1 0.939973 0.813985 0.16014
324 1 0.784194 0.990749 0.193465
334 1 0.0898583 0.778915 0.0861851
246 1 0.617207 0.913025 0.183338
83 1 0.876649 0.684396 0.153473
486 1 0.612549 0.697851 0.0576783
408 1 0.375655 0.933346 0.185815
178 1 0.0547084 0.962033 0.0596003
441 1 0.0199007 0.810743 0.142236
445 1 0.583721 0.522826 0.0642553
359 1 0.113148 0.622875 0.0523116
98 1 0.108416 0.824533 0.171596
434 1 0.0340872 0.647509 0.0700951
1 1 0.843454 0.741664 0.0992825
55 1 0.374751 0.621465 0.0445328
123 1 0.766854 0.748912 0.100254
385 1 0.404196 0.842831 0.158655
218 1 0.429644 0.901788 0.0312457
118 1 0.620573 0.776293 0.0693
426 1 0.66516 0.848706 0.159312
485 1 0.876795 0.615485 0.198971
60 1 0.473293 0.741887 0.187849
404 1 0.272821 0.558626 0.197841
75 1 0.274443 0.808908 0.198366
466 1 0.837792 0.505339 0.00346138
168 1 0.129152 0.689305 0.222348
285 1 0.723842 0.854516 0.308061
419 1 0.288351 0.879187 0.263399
225 1 0.115808 0.505282 0.224283
294 1 0.0357769 0.825827 0.282737
72 1 0.998505 0.516938 0.34808
108 1 0.232153 0.571574 0.345842
104 1 0.525216 0.537502 0.255317
247 1 0.417313 0.716172 0.242848
180 1 0.784609 0.98258 0.31056
46 1 0.916921 0.782867 0.223486
126 1 0.923317 0.585158 0.247655
31 1 0.692089 0.890163 0.370664
212 1 0.738923 0.569879 0.302388
394 1 0.176851 0.909473 0.262844
9 1 0.0258241 0.582672 0.266744
167 1 0.419233 0.762709 0.305012
204 1 0.990833 0.597367 0.368254
361 1 0.0803898 0.658771 0.269316
330 1 0.240348 0.936295 0.328396
230 1 0.310156 0.82255 0.387816
311 1 0.763027 0.508455 0.215298
50 1 0.329454 0.88114 0.327217
367 1 0.386475 0.895544 0.370579
259 1 0.639425 0.766605 0.343236
463 1 0.744426 0.751183 0.335463
186 1 0.139209 0.782519 0.242601
479 1 0.588334 0.563781 0.225019
507 1 0.692232 0.561302 0.372659
144 1 0.668154 0.63147 0.332321
18 1 0.110928 0.657301 0.352737
476 1 0.0407153 0.760324 0.305809
127 1 0.792433 0.733439 0.395511
290 1 0.625827 0.942556 0.251959
448 1 0.535801 0.732698 0.25342
381 1 0.147788 0.963047 0.208934
59 1 0.256172 0.640157 0.278646
20 1 0.593726 0.752141 0.293064
292 1 0.450902 0.817109 0.366548
313 1 0.0602635 0.579445 0.386466
199 1 0.244294 0.969381 0.474656
312 1 0.510396 0.995901 0.537268
305 1 0.860612 0.76786 0.42718
21 1 0.719987 0.59274 0.489941
10 1 0.315122 0.542466 0.565874
472 1 0.248597 0.581507 0.428163
338 1 0.626589 0.99398 0.546945
62 1 0.985254 0.97777 0.411632
2 1 0.795195 0.820822 0.49572
454 1 0.82622 0.984795 0.469019
224 1 0.654881 0.53418 0.444945
460 1 0.795518 0.563552 0.517601
351 1 0.06869 0.547949 0.556492
506 1 0.219363 0.521229 0.535281
105 1 0.591475 0.893374 0.416756
16 1 0.0172978 0.815628 0.447065
198 1 0.0822869 0.739505 0.400229
409 1 0.917759 0.993304 0.446547
12 1 0.735413 0.854096 0.525793
268 1 0.887669 0.71778 0.482455
499 1 0.00929501 0.899524 0.520579
398 1 0.288073 0.62584 0.554933
253 1 0.166207 0.873304 0.539336
329 1 0.499833 0.838631 0.508283
421 1 0.143194 0.971942 0.550733
368 1 0.587704 0.759504 0.546529
308 1 0.598515 0.840634 0.506232
228 1 0.447631 0.872401 0.466215
344 1 0.928063 0.821425 0.419337
388 1 0.290578 0.625888 0.464887
318 1 0.803173 0.740524 0.533972
356 1 0.877309 0.571466 0.597788
484 1 0.965561 0.618363 0.51775
97 1 0.963809 0.902996 0.580731
25 1 0.64634 0.945217 0.589979
495 1 0.141413 0.823118 0.493699
52 1 0.744731 0.665215 0.52474
279 1 0.300967 0.747032 0.414584
38 1 0.457592 0.750758 0.573911
428 1 0.943389 0.693157 0.527434
28 1 0.36011 0.703186 0.436521
337 1 0.395799 0.934555 0.479996
51 1 0.8021 0.906902 0.498263
354 1 0.486831 0.521059 0.581618
425 1 0.917514 0.989687 0.593494
200 1 0.463214 0.67215 0.572859
176 1 0.521279 0.85019 0.429474
510 1 0.195514 0.820039 0.417844
27 1 0.162873 0.554079 0.575659
37 1 0.60579 0.994796 0.404564
15 1 0.251925 0.897553 0.407833
284 1 0.0766291 0.551932 0.699249
358 1 0.0801018 0.693597 0.675211
509 1 0.696345 0.564085 0.75915
248 1 0.0255442 0.998904 0.710997
303 1 0.817396 0.555094 0.674642
114 1 0.24888 0.543737 0.70149
45 1 0.320973 0.522922 0.639126
53 1 0.136972 0.854026 0.631827
348 1 0.819319 0.766412 0.681435
501 1 0.67935 0.634939 0.662845
191 1 0.72821 0.546115 0.652041
316 1 0.372952 0.502971 0.690563
128 1 0.951634 0.869963 0.720107
69 1 0.483435 0.926793 0.687178
63 1 0.166057 0.592256 0.675054
73 1 0.484337 0.803732 0.728265
99 1 0.0631595 0.670023 0.770682
456 1 0.754493 0.812517 0.695548
35 1 0.908754 0.687346 0.763853
122 1 0.919527 0.688576 0.675404
502 1 0.992612 0.804995 0.608402
113 1 0.0374289 0.599545 0.739132
155 1 0.0667946 0.794147 0.647632
184 1 0.978717 0.695895 0.647386
401 1 0.238546 0.600635 0.768354
174 1 0.233412 0.713557 0.723644
205 1 0.313397 0.926477 0.735836
250 1 0.467512 0.746083 0.759595
29 1 0.969064 0.757745 0.78356
432 1 0.568135 0.866883 0.705653
202 1 0.631404 0.817224 0.67316
256 1 0.938872 0.654136 0.602685
496 1 0.936986 0.953061 0.668236
384 1 0.939552 0.501216 0.609023
141 1 0.158718 0.743975 0.70903
239 1 0.623355 0.623245 0.710757
397 1 0.563462 0.581334 0.723388
274 1 0.801808 0.794756 0.768983
332 1 0.851228 0.734936 0.766493
458 1 0.279263 0.700212 0.641294
208 1 0.934113 0.983504 0.719623
162 1 0.0444425 0.528622 0.62817
399 1 0.57836 0.758993 0.623961
449 1 0.496686 0.60737 0.623045
215 1 0.535499 0.999614 0.687894
147 1 0.445983 0.522405 0.684343
120 1 0.261246 0.964956 0.680729
183 1 0.608707 0.924988 0.771559
414 1 0.672679 0.870055 0.610533
505 1 0.329216 0.654292 0.626824
482 1 0.351274 0.961545 0.861956
461 1 0.647751 0.875156 0.853483
182 1 0.185021 0.810667 0.95818
475 1 0.875608 0.541649 0.84707
437 1 0.472107 0.914284 0.899869
416 1 0.338259 0.566171 0.896156
410 1 0.368821 0.529885 0.981917
242 1 0.610845 0.542591 0.895618
321 1 0.821049 0.97898 0.928037
412 1 0.814903 0.869244 0.818581
66 1 0.695751 0.958576 0.888082
135 1 0.63138 0.606629 0.940258
175 1 0.374327 0.75862 0.991452
32 1 0.755363 0.58274 0.819056
327 1 0.819083 0.54354 0.929314
93 1 0.754891 0.627535 0.8856
103 1 0.840068 0.862484 0.892748
169 1 0.323902 0.892034 0.971898
236 1 0.435517 0.524016 0.834183
374 1 0.651733 0.796934 0.883381
471 1 0.929556 0.890241 0.878712
457 1 0.667444 0.517804 0.833116
413 1 0.239464 0.719239 0.807101
436 1 0.0784637 0.7109 0.910379
149 1 0.0365355 0.767658 0.931548
203 1 0.249619 0.604286 0.845282
347 1 0.324119 0.648551 0.861884
395 1 0.407838 0.67801 0.876728
364 1 0.440434 0.73731 0.94235
153 1 0.726615 0.602467 0.951367
156 1 0.729709 0.786566 0.926541
331 1 0.588622 0.748989 0.903349
185 1 0.689566 0.997582 0.813677
57 1 0.511697 0.773403 0.928436
282 1 0.837526 0.774176 0.996367
335 1 0.522743 0.65272 0.814548
111 1 0.800282 0.825256 0.94045
227 1 0.991498 0.930161 0.9255
304 1 0.499337 0.837626 0.863726
195 1 0.450313 0.677412 0.803544
291 1 0.423083 0.932461 0.834772
237 1 0.0942356 0.921038 0.893847
115 1 0.317621 0.961847 0.937375
206 1 0.123154 0.883338 0.970324
382 1 0.618753 0.920026 0.928608
500 1 0.741513 0.990962 0.973407
154 1 0.83014 0.702148 0.986504
222 1 0.0454676 0.705676 0.845179
387 1 0.0369384 0.790071 0.836794
58 1 0.48048 0.958091 0.978384
30 1 0.999604 0.862974 0.996319
94 1 0.687717 0.74176 0.994369
39 1 0.299169 0.709623 0.999749
226 1 0.958925 0.860933 0.810491
310 1 0.348258 0.897892 0.800196
465 1 0.512348 0.546718 0.80693
