ITEM: TIMESTEP
1100
ITEM: NUMBER OF ATOMS
512
ITEM: BOX BOUNDS pp pp pp
0.0000000000000000e+00 1.7235477520000000e+01
0.0000000000000000e+00 1.7235477520000000e+01
0.0000000000000000e+00 1.7235477520000000e+01
ITEM: ATOMS id type xs ys zs
265 1 0.250765 0.124231 0.077099
406 1 0.459709 0.455278 0.127494
47 1 0.152089 0.135811 0.0858183
366 1 0.0955453 0.143537 0.137308
161 1 0.416892 0.093357 0.148133
264 1 0.348955 0.0935306 0.162876
194 1 0.284373 0.0606084 0.131567
77 1 0.90645 0.346984 0.0729301
22 1 0.511653 0.409705 0.172955
164 1 0.480156 0.163671 0.0482564
158 1 0.481053 0.327496 0.148295
325 1 0.69023 0.0396604 0.053401
341 1 0.642784 0.104797 0.133539
193 1 0.67288 0.118435 0.0447907
192 1 0.883454 0.170331 0.146418
133 1 0.671424 0.216371 0.028493
106 1 0.558779 0.131151 0.140578
196 1 0.52221 0.325153 0.0917044
405 1 0.938999 0.110616 0.145556
148 1 0.499028 0.0945702 0.170605
407 1 0.308775 0.254227 0.00859509
435 1 0.437172 0.217204 0.0932792
211 1 0.00460038 0.0724537 0.127737
209 1 0.261237 0.375153 0.0861558
23 1 0.789458 0.19123 0.114971
178 1 0.0668265 0.00754508 0.0343995
188 1 0.709431 0.171266 0.118176
101 1 0.473572 0.233407 0.164289
85 1 0.899949 0.196512 0.0699657
266 1 0.056415 0.318153 0.0609594
504 1 0.856909 0.216554 0.0129527
289 1 0.831054 0.377678 0.0451231
339 1 0.292183 0.197449 0.0614665
251 1 0.0859446 0.425733 0.142923
365 1 0.811182 0.448233 0.189607
255 1 0.188298 0.313532 0.0782402
378 1 0.0515925 0.393119 0.0927456
87 1 0.735308 0.414774 0.0382482
181 1 0.400448 0.288708 0.139959
70 1 0.357503 0.333336 0.0736355
309 1 0.930302 0.330141 0.149024
390 1 0.479505 0.408555 0.0441463
95 1 0.728543 0.493427 0.116687
151 1 0.302132 0.102221 0.0224471
427 1 0.203668 0.281104 0.133464
371 1 0.618888 0.351418 0.116502
116 1 0.294533 0.317842 0.172481
377 1 0.869804 0.0808771 0.168581
319 1 0.00173096 0.0326994 0.0546024
464 1 0.400498 0.355357 0.00984557
424 1 0.199893 0.0566559 0.00635549
244 1 0.197315 0.161404 0.285063
71 1 0.293535 0.373361 0.247029
381 1 0.176742 0.0938487 0.266241
78 1 0.980191 0.38344 0.243671
394 1 0.186557 0.00104834 0.268943
298 1 0.99734 0.477772 0.219277
473 1 0.308351 0.0772203 0.314786
277 1 0.882419 0.363871 0.203805
89 1 0.381512 0.06808 0.340415
488 1 0.532618 0.154938 0.223134
221 1 0.565147 0.310248 0.310445
400 1 0.219412 0.341691 0.358977
142 1 0.546987 0.368324 0.379426
92 1 0.52433 0.100293 0.282637
288 1 0.602488 0.0822326 0.319359
229 1 0.760299 0.160854 0.367951
481 1 0.883324 0.02396 0.222069
42 1 0.752372 0.0901945 0.323193
171 1 0.522266 0.183464 0.316787
333 1 0.700067 0.323225 0.237373
267 1 0.262293 0.0491079 0.365175
223 1 0.672856 0.476616 0.37523
34 1 0.672572 0.471517 0.25452
420 1 0.476422 0.427002 0.383125
72 1 0.123314 0.382023 0.378559
423 1 0.782026 0.24284 0.242606
417 1 0.259552 0.252302 0.26175
4 1 0.277596 0.459787 0.250204
444 1 0.316526 0.218185 0.333322
320 1 0.862065 0.128334 0.365074
24 1 0.650274 0.305066 0.296133
307 1 0.469611 0.243185 0.37542
37 1 0.67283 0.100706 0.266128
273 1 0.681801 0.296293 0.387134
91 1 0.000870976 0.12897 0.375274
455 1 0.825407 0.300836 0.254635
61 1 0.720393 0.393409 0.294572
492 1 0.267599 0.48572 0.344317
380 1 0.215978 0.429031 0.353373
281 1 0.341869 0.291791 0.357043
105 1 0.619932 0.000950625 0.369504
258 1 0.377094 0.371311 0.316387
286 1 0.228816 0.34618 0.286926
243 1 0.89538 0.245588 0.397498
68 1 0.598095 0.499438 0.231268
342 1 0.719998 0.226766 0.392075
86 1 0.0266789 0.0455016 0.392443
241 1 0.504244 0.168318 0.399195
204 1 0.0660787 0.449282 0.399201
197 1 0.403669 0.0252578 0.206143
386 1 0.065723 0.0142058 0.467088
257 1 0.837962 0.0728026 0.439109
100 1 0.0457039 0.0575347 0.531941
460 1 0.782316 0.489873 0.459057
477 1 0.288647 0.188309 0.527032
454 1 0.775882 0.118488 0.468758
165 1 0.0334988 0.497431 0.53169
80 1 0.506985 0.476253 0.570647
297 1 0.959396 0.17027 0.420943
438 1 0.634477 0.207119 0.553982
76 1 0.41434 0.11447 0.44301
293 1 0.394447 0.0655341 0.590384
312 1 0.571304 0.02798 0.549166
352 1 0.607467 0.165335 0.49694
112 1 0.814127 0.435098 0.489515
372 1 0.642574 0.482784 0.435727
235 1 0.503224 0.239358 0.572776
240 1 0.419439 0.00897963 0.497208
302 1 0.995184 0.359968 0.52615
232 1 0.0162162 0.200495 0.463515
470 1 0.00353599 0.278976 0.44526
109 1 0.14743 0.288836 0.529966
210 1 0.311958 0.0716207 0.561718
489 1 0.213763 0.226439 0.532814
391 1 0.795791 0.012619 0.401657
447 1 0.679702 0.435972 0.55534
62 1 0.942245 0.0443329 0.579795
322 1 0.533499 0.158371 0.484533
337 1 0.490722 0.0141104 0.441441
84 1 0.508546 0.306212 0.48025
462 1 0.733333 0.378593 0.507075
19 1 0.0686795 0.40136 0.5655
21 1 0.710123 0.478393 0.493271
355 1 0.705446 0.183731 0.492027
328 1 0.745162 0.354234 0.407127
287 1 0.0892701 0.333006 0.537501
231 1 0.801409 0.285614 0.459795
389 1 0.80629 0.261713 0.542214
5 1 0.93175 0.333501 0.425786
503 1 0.621347 0.0155572 0.598206
14 1 0.581034 0.359258 0.46171
422 1 0.704722 0.00462238 0.559191
323 1 0.960064 0.407078 0.467478
220 1 0.855085 0.368408 0.478723
411 1 0.373182 0.339921 0.439147
213 1 0.423641 0.381835 0.431942
140 1 0.298 0.346901 0.441096
384 1 0.999875 0.451164 0.593482
11 1 0.25368 0.114826 0.587225
269 1 0.0526337 0.110018 0.677445
491 1 0.637245 0.162663 0.631612
248 1 0.0104248 0.0510612 0.720234
190 1 0.977462 0.391518 0.731502
360 1 0.877238 0.0925442 0.722893
284 1 0.117216 0.488314 0.785002
345 1 0.900721 0.483008 0.690921
508 1 0.649522 0.451561 0.725539
173 1 0.3234 0.226518 0.673091
41 1 0.521009 0.311491 0.622739
120 1 0.398089 0.0194865 0.678856
74 1 0.624458 0.140221 0.746964
215 1 0.587306 0.0779054 0.694517
421 1 0.190704 0.0162987 0.600165
177 1 0.80207 0.283783 0.612042
43 1 0.465894 0.349932 0.642843
403 1 0.943021 0.0660074 0.795968
453 1 0.885505 0.172426 0.689233
430 1 0.497082 0.387949 0.799694
296 1 0.0050614 0.211872 0.745307
88 1 0.345513 0.348271 0.770502
316 1 0.397408 0.463874 0.677779
478 1 0.454793 0.150245 0.672638
336 1 0.394025 0.177668 0.69296
130 1 0.623912 0.259859 0.716957
64 1 0.594186 0.18393 0.688194
295 1 0.722259 0.205158 0.654007
451 1 0.666795 0.327051 0.730337
429 1 0.748254 0.163961 0.749436
187 1 0.832834 0.331327 0.758408
498 1 0.920505 0.0434596 0.688081
483 1 0.275156 0.196528 0.612056
494 1 0.436724 0.419826 0.777522
131 1 0.524495 0.0677757 0.767401
56 1 0.44087 0.0587512 0.748639
136 1 0.131299 0.423352 0.793517
469 1 0.205237 0.297028 0.751312
349 1 0.958246 0.441393 0.681165
260 1 0.0567453 0.275133 0.728188
147 1 0.439445 0.450246 0.621379
67 1 0.51136 0.115951 0.644523
245 1 0.90633 0.199862 0.766197
110 1 0.804655 0.199355 0.671742
512 1 0.790376 0.340636 0.680797
276 1 0.723154 0.297667 0.687212
383 1 0.258769 0.363206 0.780283
346 1 0.179494 0.122919 0.788507
189 1 0.169656 0.0918708 0.608005
431 1 0.0143928 0.327912 0.755862
146 1 0.128209 0.249089 0.798448
357 1 0.0890165 0.0731917 0.601168
500 1 0.634449 0.0249431 0.940926
117 1 0.487237 0.0924365 0.878016
275 1 0.000629953 0.414697 0.953638
459 1 0.190923 0.0194635 0.818391
166 1 0.137111 0.00376668 0.990487
263 1 0.899012 0.0250833 0.935773
314 1 0.301399 0.0933153 0.841712
214 1 0.231234 0.487337 0.972753
452 1 0.536123 0.0607807 0.961183
233 1 0.620476 0.169379 0.839394
280 1 0.554921 0.0917161 0.833322
433 1 0.79847 0.33305 0.993052
396 1 0.981416 0.00621334 0.90568
300 1 0.897036 0.150393 0.813812
353 1 0.050745 0.309946 0.969362
139 1 0.962975 0.472209 0.826957
379 1 0.833227 0.488031 0.804448
159 1 0.354 0.120993 0.904165
511 1 0.273509 0.17139 0.834584
219 1 0.37353 0.268453 0.800693
457 1 0.565759 0.472968 0.90486
96 1 0.632513 0.287928 0.941207
49 1 0.632432 0.366943 0.902739
26 1 0.569164 0.192704 0.903997
36 1 0.762834 0.176223 0.904544
439 1 0.698106 0.235572 0.950678
261 1 0.894931 0.230498 0.935543
17 1 0.766512 0.219113 0.811201
497 1 0.044863 0.253874 0.911006
443 1 0.960163 0.208259 0.901814
376 1 0.833347 0.416688 0.888152
40 1 0.0580475 0.232441 0.82519
121 1 0.0879285 0.411177 0.877243
170 1 0.100628 0.44194 0.956573
157 1 0.150973 0.355966 0.983062
474 1 0.274081 0.35378 0.927477
249 1 0.19636 0.397431 0.941484
172 1 0.435297 0.0102176 0.814338
410 1 0.331357 0.401165 0.966643
216 1 0.421852 0.289231 0.907749
242 1 0.610933 0.489191 0.996955
124 1 0.570021 0.386339 0.861068
363 1 0.653503 0.411421 0.979434
113 1 0.0216008 0.493358 0.858
468 1 0.450963 0.114527 0.983299
480 1 0.280258 0.00194191 0.809396
138 1 0.4403 0.342131 0.817292
343 1 0.135984 0.211596 0.917554
416 1 0.310706 0.487754 0.964159
490 1 0.367797 0.0895556 0.987872
467 1 0.170902 0.479084 0.905457
415 1 0.484248 0.196185 0.926849
392 1 0.939433 0.475318 0.91079
90 1 0.527125 0.471045 0.809382
299 1 0.359275 0.2228 0.931553
238 1 0.185764 0.166103 0.856632
54 1 0.229725 0.308284 0.869291
393 1 0.29668 0.244802 0.841743
58 1 0.492597 0.0203463 0.999288
301 1 0.490154 0.335694 0.995443
119 1 0.771506 0.402929 0.819575
32 1 0.71031 0.44487 0.815981
315 1 0.834603 0.2728 0.802398
82 1 0.0432932 0.559618 0.0701829
145 1 0.108045 0.631602 0.069048
7 1 0.958556 0.607535 0.118007
8 1 0.665862 0.555815 0.118334
30 1 0.976517 0.848482 0.104881
479 1 0.583821 0.53278 0.168906
402 1 0.610621 0.724236 0.105869
362 1 0.972131 0.918471 0.13856
44 1 0.913851 0.961811 0.0693952
132 1 0.768697 0.617508 0.0405561
179 1 0.728672 0.653784 0.119169
317 1 0.683756 0.742977 0.153739
466 1 0.852197 0.634251 0.0151708
418 1 0.881377 0.516595 0.180811
143 1 0.797867 0.728395 0.082901
262 1 0.111393 0.746651 0.131043
306 1 0.114581 0.875935 0.139772
137 1 0.618565 0.921511 0.0485747
134 1 0.287128 0.677269 0.0829535
125 1 0.385155 0.79877 0.139883
183 1 0.602577 0.805498 0.0868981
283 1 0.886645 0.975255 0.15962
94 1 0.737708 0.773863 0.0406678
46 1 0.815086 0.869138 0.154282
382 1 0.587566 0.852613 0.0236635
33 1 0.700804 0.805297 0.112908
493 1 0.078435 0.521703 0.148231
442 1 0.0883778 0.713199 0.0549884
326 1 0.910566 0.835398 0.0467888
154 1 0.873177 0.746611 0.0334154
334 1 0.0588991 0.857171 0.0268786
160 1 0.431114 0.964362 0.128157
39 1 0.440847 0.755102 0.109929
175 1 0.290727 0.720378 0.0238201
408 1 0.432838 0.931467 0.055023
218 1 0.361777 0.92071 0.00225983
441 1 0.00558179 0.746868 0.169459
445 1 0.660385 0.535015 0.0383971
359 1 0.016327 0.567256 0.162222
98 1 0.124238 0.899184 0.0692213
434 1 0.912233 0.648394 0.0754892
163 1 0.44234 0.516504 0.163402
55 1 0.214869 0.600068 0.086643
123 1 0.818612 0.792319 0.156062
385 1 0.473911 0.843868 0.131002
212 1 0.882979 0.618561 0.175247
118 1 0.661285 0.704086 0.0135365
426 1 0.607208 0.946822 0.11619
487 1 0.660667 0.979909 0.0189403
107 1 0.530229 0.969899 0.137657
440 1 0.363697 0.546019 0.0179048
81 1 0.505078 0.5542 0.174527
350 1 0.848704 0.905683 0.196909
375 1 0.487144 0.91923 0.173766
246 1 0.616918 0.921377 0.193301
168 1 0.0642555 0.631933 0.277223
270 1 0.141907 0.663431 0.253286
419 1 0.295256 0.69893 0.245783
404 1 0.245994 0.543962 0.285401
294 1 0.0681442 0.763617 0.324575
313 1 0.147945 0.562884 0.371253
108 1 0.321683 0.652066 0.331156
104 1 0.547679 0.546244 0.281172
247 1 0.488343 0.674659 0.318035
180 1 0.858233 0.980451 0.320344
60 1 0.556662 0.640356 0.294268
126 1 0.772331 0.637728 0.279199
31 1 0.689478 0.957857 0.321675
186 1 0.151137 0.704146 0.32113
485 1 0.878534 0.715618 0.291802
271 1 0.955609 0.989361 0.31067
13 1 0.489211 0.503683 0.335733
28 1 0.307904 0.941555 0.264277
361 1 0.014053 0.58475 0.32338
330 1 0.34017 0.994078 0.255266
75 1 0.231147 0.721764 0.283404
311 1 0.811537 0.588915 0.217279
50 1 0.380063 0.694437 0.318846
367 1 0.446703 0.724576 0.281104
259 1 0.677156 0.760211 0.312183
463 1 0.638271 0.81375 0.28073
225 1 0.258826 0.631739 0.366434
369 1 0.571055 0.564629 0.378871
83 1 0.94223 0.687454 0.256905
324 1 0.809568 0.910733 0.27009
127 1 0.824238 0.816143 0.362529
476 1 0.0252484 0.70989 0.284442
3 1 0.844504 0.848737 0.29652
507 1 0.818916 0.59669 0.364192
409 1 0.959345 0.973966 0.396893
15 1 0.199009 0.963603 0.347092
207 1 0.731595 0.994471 0.384233
20 1 0.709897 0.677983 0.300159
279 1 0.364927 0.857808 0.367939
230 1 0.298244 0.923459 0.342888
290 1 0.559105 0.933233 0.246578
18 1 0.0580302 0.585262 0.386992
448 1 0.639295 0.611341 0.364226
176 1 0.547296 0.959242 0.347579
285 1 0.693589 0.914187 0.267919
510 1 0.126762 0.946847 0.379532
59 1 0.246979 0.610456 0.200236
162 1 0.0942698 0.547095 0.536788
184 1 0.0702479 0.661202 0.552216
399 1 0.741016 0.738823 0.463642
458 1 0.243012 0.876266 0.592575
10 1 0.244869 0.544686 0.563023
472 1 0.192271 0.632296 0.446851
414 1 0.591908 0.79397 0.493868
338 1 0.728945 0.936167 0.594449
2 1 0.746622 0.82533 0.448934
292 1 0.54492 0.876079 0.489892
224 1 0.687214 0.621194 0.466496
200 1 0.434191 0.659176 0.59556
65 1 0.334363 0.994469 0.532463
144 1 0.81977 0.591311 0.459063
191 1 0.765517 0.541952 0.570135
16 1 0.972639 0.771518 0.481305
198 1 0.902265 0.834314 0.47429
129 1 0.658498 0.909825 0.489765
12 1 0.750827 0.89527 0.505273
358 1 0.201049 0.677545 0.585179
499 1 0.879196 0.88036 0.519726
398 1 0.237333 0.721065 0.525787
201 1 0.155545 0.532559 0.469373
329 1 0.46325 0.864051 0.519264
38 1 0.445077 0.806936 0.566997
368 1 0.662718 0.711883 0.458094
308 1 0.610362 0.78348 0.418319
228 1 0.544203 0.944196 0.427859
344 1 0.909228 0.7202 0.438968
388 1 0.262281 0.648022 0.479087
318 1 0.778087 0.649716 0.562768
356 1 0.835602 0.670893 0.496956
484 1 0.0451474 0.744081 0.516888
97 1 0.912184 0.969867 0.548726
305 1 0.880786 0.798132 0.414655
495 1 0.181684 0.912543 0.456978
52 1 0.750699 0.602895 0.420642
79 1 0.618539 0.991408 0.457346
505 1 0.260224 0.806555 0.573413
428 1 0.891292 0.635214 0.591105
252 1 0.238834 0.977224 0.495965
167 1 0.369165 0.843536 0.444034
51 1 0.70857 0.864833 0.587461
354 1 0.536092 0.571455 0.586627
272 1 0.218123 0.507326 0.498775
9 1 0.0118688 0.501156 0.442666
25 1 0.624069 0.799153 0.589804
268 1 0.816821 0.595436 0.597132
199 1 0.271993 0.98838 0.405164
222 1 0.0765495 0.649613 0.787724
446 1 0.659205 0.505428 0.674922
254 1 0.130725 0.506484 0.636148
27 1 0.0718612 0.568897 0.727965
303 1 0.834459 0.510285 0.714376
114 1 0.28125 0.563046 0.733878
45 1 0.346095 0.501392 0.712435
53 1 0.0811303 0.910265 0.64486
348 1 0.866223 0.709301 0.784271
501 1 0.77948 0.527728 0.649786
195 1 0.428623 0.678881 0.728068
425 1 0.945338 0.97678 0.632822
128 1 0.737673 0.744729 0.702321
450 1 0.630087 0.535901 0.610768
335 1 0.513681 0.664628 0.797399
73 1 0.413615 0.773657 0.628933
412 1 0.789411 0.936912 0.756056
456 1 0.779787 0.713293 0.764768
203 1 0.329579 0.715612 0.783081
122 1 0.870474 0.683811 0.712759
502 1 0.0139992 0.803345 0.738654
253 1 0.142395 0.979227 0.638703
155 1 0.014914 0.912768 0.665917
351 1 0.0859937 0.655251 0.666165
401 1 0.199086 0.68012 0.656048
174 1 0.212536 0.841845 0.659755
413 1 0.167248 0.775018 0.681066
250 1 0.379481 0.71651 0.680386
449 1 0.485062 0.625466 0.620112
432 1 0.539383 0.867497 0.703199
202 1 0.587864 0.842297 0.655944
256 1 0.889196 0.697308 0.638156
496 1 0.92885 0.769179 0.691257
103 1 0.871989 0.86894 0.78502
141 1 0.102099 0.83049 0.678848
387 1 0.944943 0.912066 0.699699
506 1 0.194914 0.542784 0.62509
274 1 0.790505 0.849917 0.739474
278 1 0.932415 0.926235 0.784756
437 1 0.427303 0.830608 0.777448
310 1 0.350285 0.870558 0.738833
205 1 0.369112 0.938885 0.673468
370 1 0.476974 0.864222 0.73578
63 1 0.232691 0.610878 0.68693
69 1 0.485672 0.942737 0.668632
102 1 0.332432 0.632981 0.7974
482 1 0.367679 0.987502 0.849106
461 1 0.577851 0.942508 0.888987
217 1 0.453681 0.564835 0.936207
475 1 0.771676 0.519356 0.856494
185 1 0.739262 0.955051 0.811665
465 1 0.448702 0.581906 0.857434
1 1 0.965538 0.965367 0.983346
486 1 0.44208 0.704551 0.951738
340 1 0.45501 0.508486 0.81992
153 1 0.751592 0.560484 0.999114
66 1 0.624336 0.991447 0.843052
135 1 0.700109 0.591177 0.912069
239 1 0.607203 0.58982 0.904871
397 1 0.568066 0.667025 0.858933
327 1 0.835827 0.639928 0.933283
93 1 0.781331 0.565941 0.919456
35 1 0.983993 0.641854 0.839156
332 1 0.917182 0.646624 0.805082
321 1 0.868081 0.996139 0.874008
373 1 0.89621 0.52383 0.840214
471 1 0.859655 0.803837 0.890318
182 1 0.0799148 0.784632 0.998698
29 1 0.00502657 0.714385 0.82313
436 1 0.0876142 0.807526 0.838197
149 1 0.138179 0.822701 0.918215
234 1 0.301177 0.587488 0.992936
347 1 0.382576 0.729778 0.887574
395 1 0.29572 0.723674 0.940146
364 1 0.476496 0.76606 0.916959
150 1 0.417376 0.61892 0.982932
156 1 0.75612 0.820224 0.985305
331 1 0.655889 0.712183 0.867465
509 1 0.711212 0.738472 0.804246
57 1 0.645528 0.877061 0.915522
282 1 0.83591 0.764164 0.961041
226 1 0.0162001 0.796233 0.818813
111 1 0.912178 0.812509 0.81402
227 1 0.0142088 0.89447 0.976497
304 1 0.436888 0.783508 0.847795
152 1 0.786113 0.997027 0.891111
48 1 0.135955 0.953328 0.840781
237 1 0.149023 0.926346 0.925396
115 1 0.337838 0.909008 0.871653
206 1 0.164193 0.85424 0.982347
99 1 0.0363521 0.582537 0.83491
208 1 0.955951 0.985958 0.829095
6 1 0.68497 0.674048 0.945996
169 1 0.327 0.90142 0.94896
374 1 0.726216 0.874787 0.929226
236 1 0.291519 0.562344 0.806448
291 1 0.324146 0.869089 0.814941
