ITEM: TIMESTEP
1800
ITEM: NUMBER OF ATOMS
512
ITEM: BOX BOUNDS pp pp pp
0.0000000000000000e+00 1.7235477520000000e+01
0.0000000000000000e+00 1.7235477520000000e+01
0.0000000000000000e+00 1.7235477520000000e+01
ITEM: ATOMS id type xs ys zs
441 1 0.792433 0.136821 0.0518143
187 1 0.0413515 0.228825 0.102429
94 1 0.772756 0.336951 0.108343
40 1 0.202393 0.388984 0.160901
218 1 0.594686 0.0837919 0.0673767
151 1 0.417914 0.297947 0.0866113
93 1 0.920983 0.472733 0.041522
8 1 0.630945 0.480039 0.0552627
17 1 0.968175 0.221547 0.116867
319 1 0.32726 0.130591 0.0840737
249 1 0.941581 0.37753 0.0313334
392 1 0.0649878 0.390346 0.117449
427 1 0.36037 0.160951 0.0188711
193 1 0.207101 0.262184 0.0246657
192 1 0.751094 0.166224 0.110685
142 1 0.412924 0.134684 0.122026
490 1 0.494657 0.266376 0.136283
197 1 0.667288 0.134189 0.0242524
96 1 0.645163 0.261524 0.140127
58 1 0.548003 0.108457 0.141356
255 1 0.549788 0.453895 0.0637738
377 1 0.673589 0.189029 0.100988
407 1 0.41747 0.489443 0.157984
443 1 0.291793 0.275667 0.0249405
258 1 0.470524 0.197082 0.147773
118 1 0.695159 0.331208 0.162982
474 1 0.398635 0.371462 0.0998793
468 1 0.458564 0.0650938 0.126212
225 1 0.168423 0.4611 0.184547
133 1 0.76804 0.172064 0.182601
196 1 0.583118 0.317717 0.112187
350 1 0.955289 0.270409 0.199943
371 1 0.814093 0.355228 0.0425952
232 1 0.281805 0.383662 0.134304
365 1 0.0197603 0.407367 0.0440893
126 1 0.0918983 0.474245 0.149363
170 1 0.148283 0.350884 0.110136
160 1 0.544975 0.0340099 0.0239613
400 1 0.113722 0.220315 0.129816
479 1 0.711426 0.489098 0.0728395
380 1 0.360129 0.426285 0.15444
85 1 0.867272 0.180011 0.0520785
158 1 0.54855 0.391318 0.135344
497 1 0.314392 0.32783 0.0843368
363 1 0.77488 0.424424 0.073722
211 1 0.157165 0.276203 0.0876129
301 1 0.472132 0.0156395 0.0573478
410 1 0.491237 0.497735 0.19214
306 1 0.0343278 0.0113006 0.0189568
512 1 0.888542 0.233292 0.0073704
166 1 0.172175 0.00795913 0.304809
223 1 0.664047 0.487533 0.240019
320 1 0.854673 0.314681 0.363891
163 1 0.524891 0.402617 0.209562
87 1 0.725411 0.193526 0.24677
351 1 0.0508166 0.482503 0.228
271 1 0.8724 0.260888 0.221639
287 1 0.0769208 0.308531 0.370505
281 1 0.161313 0.107022 0.376466
22 1 0.685814 0.387618 0.218419
188 1 0.567656 0.171231 0.279522
333 1 0.876384 0.281877 0.287685
277 1 0.015263 0.20339 0.319333
417 1 0.874164 0.0146677 0.257264
89 1 0.97297 0.118495 0.303569
101 1 0.667296 0.428487 0.289091
418 1 0.0129731 0.278987 0.262807
366 1 0.890948 0.0995014 0.261839
109 1 0.0456338 0.421173 0.281935
386 1 0.0461099 0.239171 0.382596
342 1 0.636945 0.405804 0.360328
435 1 0.221272 0.0482082 0.363283
405 1 0.0242706 0.0675814 0.345602
464 1 0.584127 0.345568 0.323032
5 1 0.769974 0.30589 0.357025
503 1 0.594178 0.180862 0.351853
116 1 0.494609 0.427225 0.345699
266 1 0.517312 0.376715 0.279239
207 1 0.717822 0.261221 0.304867
4 1 0.416665 0.41107 0.380695
341 1 0.650799 0.222528 0.282332
86 1 0.0468237 0.352971 0.309484
70 1 0.531692 0.133672 0.215104
60 1 0.49509 0.0524267 0.39533
68 1 0.565996 0.451224 0.387148
481 1 0.846641 0.176839 0.204119
431 1 0.123263 0.2673 0.494602
273 1 0.894395 0.338621 0.438042
302 1 0.945398 0.380717 0.51842
11 1 0.0948529 0.193572 0.475312
67 1 0.406555 0.174706 0.540858
411 1 0.294804 0.360388 0.468223
370 1 0.397232 0.0946631 0.592917
42 1 0.772578 0.144437 0.444311
37 1 0.488617 0.124126 0.407671
10 1 0.0108308 0.424405 0.51124
470 1 0.757249 0.223709 0.455018
213 1 0.444877 0.197222 0.463838
460 1 0.58225 0.000774192 0.501437
243 1 0.664191 0.223189 0.486147
257 1 0.668129 0.0770145 0.506852
71 1 0.510728 0.383639 0.435751
235 1 0.360839 0.422091 0.475441
79 1 0.549126 0.175642 0.552036
269 1 0.971982 0.10077 0.542111
171 1 0.687354 0.120918 0.445219
420 1 0.476943 0.375399 0.502372
216 1 0.325494 0.290372 0.579179
41 1 0.183775 0.276882 0.55925
355 1 0.649289 0.333282 0.533876
164 1 0.636022 0.349907 0.45824
421 1 0.011655 0.0252139 0.506556
91 1 0.839483 0.424403 0.466631
506 1 0.127208 0.480691 0.516368
311 1 0.706643 0.396132 0.529835
422 1 0.677418 0.0110823 0.46755
462 1 0.507405 0.386741 0.572904
357 1 0.0265039 0.170148 0.540674
129 1 0.519773 0.20276 0.468835
241 1 0.515744 0.489454 0.557164
328 1 0.25845 0.311378 0.543764
26 1 0.559952 0.31922 0.408354
165 1 0.89218 0.456555 0.534761
45 1 0.0725888 0.424067 0.567191
307 1 0.127391 0.117015 0.44566
372 1 0.635143 0.206721 0.564795
14 1 0.380307 0.461645 0.542845
423 1 0.760411 0.400405 0.463308
34 1 0.639307 0.278767 0.592499
368 1 0.600712 0.0930892 0.559686
293 1 0.37542 0.237289 0.596601
391 1 0.845607 0.10637 0.463161
221 1 0.272281 0.0171631 0.406667
19 1 0.198035 0.495473 0.534121
108 1 0.389994 0.480127 0.400384
396 1 0.947366 0.325147 0.587316
100 1 0.0206738 0.280798 0.556765
322 1 0.588223 0.225745 0.424749
354 1 0.247883 0.463304 0.591173
173 1 0.14294 0.309566 0.434363
393 1 0.232839 0.325049 0.435211
139 1 0.75439 0.369508 0.597624
16 1 0.860713 0.0502768 0.42318
433 1 0.715151 0.363629 0.416458
325 1 0.0402475 0.0516173 0.41757
467 1 0.938959 0.398902 0.772028
231 1 0.757399 0.121179 0.65947
242 1 0.666007 0.353298 0.708043
113 1 0.193458 0.452014 0.64149
6 1 0.640529 0.422788 0.73982
121 1 0.0363501 0.432946 0.754541
491 1 0.450959 0.120187 0.673285
140 1 0.0656473 0.377678 0.719928
110 1 0.913719 0.17722 0.761538
120 1 0.32287 0.0173376 0.717892
312 1 0.563376 0.0147234 0.679504
152 1 0.734734 0.229159 0.678117
483 1 0.178934 0.273799 0.641518
24 1 0.869288 0.0299366 0.618048
446 1 0.69366 0.346411 0.626435
507 1 0.837378 0.413946 0.610729
425 1 0.824303 0.0892337 0.653901
453 1 0.90486 0.341494 0.655103
480 1 0.124954 0.0967307 0.765367
177 1 0.637167 0.121346 0.756141
88 1 0.254242 0.244431 0.683871
248 1 0.00547573 0.240434 0.711735
498 1 0.912187 0.342224 0.734075
360 1 0.0928811 0.394669 0.633123
130 1 0.322482 0.297619 0.707889
389 1 0.672725 0.093022 0.676025
64 1 0.0725129 0.3272 0.784454
438 1 0.458465 0.312025 0.707944
336 1 0.400724 0.168358 0.715588
112 1 0.31982 0.351188 0.636277
219 1 0.385779 0.24194 0.673663
56 1 0.242763 0.179893 0.74588
220 1 0.833493 0.469461 0.672973
233 1 0.514702 0.085709 0.705646
316 1 0.386448 0.328966 0.757303
373 1 0.652816 0.283414 0.749706
299 1 0.569256 0.159092 0.735685
147 1 0.324482 0.428334 0.600997
295 1 0.932892 0.247257 0.750943
74 1 0.620654 0.0614666 0.625319
494 1 0.122599 0.178912 0.734974
13 1 0.494505 0.352146 0.64684
15 1 0.0509849 0.193449 0.612983
238 1 0.0670295 0.241161 0.742341
245 1 0.713583 0.221528 0.747188
48 1 0.1882 0.0522286 0.773778
397 1 0.620909 0.493933 0.696727
201 1 0.121218 0.193218 0.640967
215 1 0.510518 0.00962021 0.754574
489 1 0.902057 0.468121 0.72503
205 1 0.35312 0.0494372 0.642195
117 1 0.435552 0.158758 0.784149
488 1 0.572424 0.250621 0.624616
482 1 0.246026 0.107857 0.78185
43 1 0.509699 0.17787 0.775116
114 1 0.245336 0.453795 0.795693
44 1 0.0335144 0.0627691 0.775715
252 1 0.922086 0.0929917 0.610096
504 1 0.202065 0.225473 0.944237
49 1 0.281224 0.429763 0.951236
275 1 0.897754 0.305031 0.889465
222 1 0.0368533 0.310309 0.873539
280 1 0.962042 0.297753 0.926939
115 1 0.42674 0.108097 0.851741
383 1 0.325943 0.446501 0.818469
461 1 0.62863 0.401721 0.816656
296 1 0.222004 0.142086 0.891601
445 1 0.815126 0.417589 0.910501
353 1 0.346165 0.305169 0.941812
347 1 0.392768 0.0281497 0.865801
169 1 0.138836 0.10506 0.919055
39 1 0.332452 0.0415585 0.817059
346 1 0.21497 0.287685 0.863668
138 1 0.348549 0.467013 0.991246
466 1 0.957482 0.469807 0.900275
159 1 0.447193 0.162518 0.903443
511 1 0.231368 0.204603 0.826535
30 1 0.730837 0.0244261 0.890923
157 1 0.164001 0.373761 0.871416
315 1 0.635271 0.33317 0.844636
80 1 0.40998 0.32636 0.907426
379 1 0.814818 0.334081 0.962574
148 1 0.647774 0.0660669 0.880967
217 1 0.358673 0.357717 0.826298
261 1 0.851377 0.0394647 0.901708
286 1 0.430879 0.198573 0.976979
430 1 0.519131 0.171873 0.958963
254 1 0.175204 0.452037 0.840677
276 1 0.59321 0.267209 0.828081
450 1 0.647277 0.13784 0.84101
178 1 0.778426 0.0722597 0.93094
327 1 0.899831 0.399211 0.87905
321 1 0.750098 0.136839 0.986432
415 1 0.587575 0.017704 0.867576
90 1 0.402304 0.470634 0.818997
457 1 0.778217 0.481848 0.958181
54 1 0.621225 0.185738 0.968978
465 1 0.663988 0.494519 0.842045
119 1 0.0945352 0.0608024 0.955721
172 1 0.104431 0.32127 0.865709
190 1 0.915628 0.0754779 0.873589
314 1 0.951449 0.121325 0.805148
451 1 0.560873 0.19138 0.853753
214 1 0.216079 0.448489 0.988245
3 1 0.782775 0.223333 0.867409
124 1 0.818188 0.2491 0.932766
23 1 0.726248 0.188164 0.831758
77 1 0.935103 0.295323 0.991472
376 1 0.991128 0.495279 0.989747
324 1 0.625229 0.884363 0.189848
493 1 0.0297372 0.572756 0.0147068
7 1 0.0823983 0.870055 0.0652427
331 1 0.362874 0.651522 0.0914053
97 1 6.27741e-05 0.864869 0.172562
168 1 0.101208 0.805223 0.122726
246 1 0.53595 0.689097 0.13172
290 1 0.574928 0.735757 0.183699
251 1 0.156214 0.594909 0.115383
161 1 0.324407 0.827302 0.0116028
294 1 0.217527 0.99661 0.138927
288 1 0.749494 0.905542 0.123248
304 1 0.427942 0.950724 0.055587
385 1 0.408419 0.908441 0.135116
313 1 0.0267885 0.770629 0.136325
262 1 0.161457 0.995793 0.0925413
20 1 0.668966 0.746144 0.154482
485 1 0.965406 0.724196 0.101753
274 1 0.650991 0.756376 0.0599601
125 1 0.457598 0.845538 0.0986279
440 1 0.247856 0.774435 0.131325
359 1 0.275735 0.829767 0.0612566
452 1 0.667876 0.905171 0.13173
132 1 0.278284 0.641606 0.0538504
492 1 0.0688589 0.571095 0.0967886
332 1 0.534377 0.805655 0.117552
61 1 0.706604 0.586981 0.115347
381 1 0.977326 0.955482 0.0371429
326 1 0.819993 0.778164 0.0814309
78 1 0.90659 0.594614 0.171875
75 1 0.367633 0.922526 0.193145
46 1 0.797108 0.850292 0.105619
83 1 0.891328 0.737174 0.114328
426 1 0.767637 0.669552 0.0304766
416 1 0.499981 0.67901 0.0634238
154 1 0.981384 0.647328 0.0162507
179 1 0.688229 0.647011 0.0468739
55 1 0.203942 0.595697 0.0495526
390 1 0.376828 0.670004 0.163983
444 1 0.56893 0.613587 0.165449
298 1 0.988673 0.580587 0.158406
340 1 0.515276 0.521643 0.0712295
145 1 0.0880812 0.987431 0.070646
402 1 0.812428 0.69789 0.100872
283 1 0.819549 0.919842 0.157757
194 1 0.00892933 0.909817 0.0932242
455 1 0.856834 0.565046 0.115137
57 1 0.426142 0.627777 0.0505491
95 1 0.78506 0.61517 0.146954
378 1 0.185589 0.542619 0.175569
469 1 0.431006 0.529444 0.0725349
282 1 0.905411 0.640366 0.0104614
499 1 0.166908 0.775618 0.158074
432 1 0.588952 0.825279 0.0561057
134 1 0.293575 0.698431 0.150378
212 1 0.645115 0.582175 0.173745
62 1 0.847345 0.982456 0.185666
309 1 0.846137 0.500926 0.0651192
285 1 0.72288 0.831317 0.285427
198 1 0.0329474 0.808577 0.294413
1 1 0.802312 0.668106 0.215094
104 1 0.464675 0.606865 0.265907
330 1 0.292782 0.823858 0.347707
72 1 0.995705 0.730385 0.287337
289 1 0.0337827 0.57069 0.228726
279 1 0.496936 0.614869 0.334652
406 1 0.403545 0.642645 0.239564
92 1 0.52348 0.808473 0.293368
234 1 0.320284 0.628288 0.283759
428 1 0.164204 0.74049 0.234949
31 1 0.584239 0.772269 0.27151
265 1 0.384873 0.882038 0.253773
394 1 0.239788 0.717411 0.28052
33 1 0.675323 0.654127 0.301509
204 1 0.935486 0.711691 0.242875
256 1 0.0470899 0.622256 0.372354
361 1 0.115275 0.665748 0.248169
76 1 0.219416 0.878639 0.339319
362 1 0.889314 0.655201 0.225652
28 1 0.582649 0.584948 0.342801
229 1 0.64396 0.84123 0.258967
264 1 0.256588 0.973816 0.202387
18 1 0.113275 0.789355 0.336091
259 1 0.74473 0.796268 0.367724
352 1 0.61916 0.558978 0.266576
53 1 0.131907 0.722121 0.386476
404 1 0.250706 0.654895 0.233384
272 1 0.300293 0.590778 0.357376
123 1 0.635004 0.642954 0.372413
476 1 0.0291343 0.650916 0.293935
127 1 0.734501 0.693993 0.258967
305 1 0.773943 0.773671 0.288739
180 1 0.436265 0.832171 0.282339
9 1 0.192236 0.607264 0.279806
424 1 0.216025 0.940204 0.291285
167 1 0.545467 0.823446 0.384871
270 1 0.259654 0.748584 0.363808
297 1 0.219823 0.579356 0.34696
408 1 0.347034 0.818804 0.282656
186 1 0.0190613 0.872022 0.242028
334 1 0.0985328 0.991356 0.35361
339 1 0.536257 0.558812 0.222674
454 1 0.850227 0.956068 0.314497
260 1 0.142095 0.854026 0.385532
51 1 0.829469 0.986547 0.388909
59 1 0.342546 0.559317 0.41561
210 1 0.207332 0.912975 0.542518
447 1 0.57878 0.536198 0.511815
21 1 0.731742 0.798162 0.497136
27 1 0.111396 0.504068 0.426598
463 1 0.566405 0.78463 0.504093
189 1 0.297134 0.888403 0.468923
510 1 0.0383197 0.810754 0.483649
65 1 0.229588 0.830607 0.519736
240 1 0.184695 0.759499 0.492291
224 1 0.630104 0.645947 0.515221
105 1 0.524869 0.994686 0.442086
209 1 0.57009 0.529252 0.435993
329 1 0.678399 0.7634 0.446724
505 1 0.0867198 0.686343 0.581043
367 1 0.47511 0.690665 0.573909
191 1 0.930498 0.621163 0.551741
495 1 0.310584 0.665562 0.579467
496 1 0.79465 0.918205 0.427831
268 1 0.866096 0.762852 0.531331
472 1 0.208768 0.564703 0.477839
398 1 0.0575876 0.717329 0.483423
369 1 0.627016 0.585401 0.559116
484 1 0.0453254 0.555709 0.415298
128 1 0.949349 0.780154 0.54739
63 1 0.184216 0.540797 0.406256
308 1 0.546497 0.867136 0.506448
228 1 0.384262 0.67031 0.590899
317 1 0.650199 0.680017 0.444584
448 1 0.528773 0.890981 0.433224
318 1 0.804892 0.790371 0.487786
267 1 0.146305 0.932603 0.414097
356 1 0.921787 0.542572 0.536588
253 1 0.973036 0.943713 0.552629
502 1 0.00327281 0.866018 0.539431
459 1 0.135021 0.928631 0.592725
239 1 0.631932 0.885369 0.592979
38 1 0.424397 0.597562 0.538193
419 1 0.211122 0.709276 0.42212
146 1 0.168161 0.973575 0.488031
473 1 0.305717 0.939362 0.421315
501 1 0.691035 0.874076 0.525968
508 1 0.440625 0.517715 0.552666
184 1 0.0758792 0.676147 0.420087
52 1 0.00320419 0.501426 0.467421
199 1 0.128752 0.815656 0.464556
144 1 0.593925 0.765984 0.42516
414 1 0.566461 0.923095 0.564948
2 1 0.724491 0.941639 0.481268
300 1 0.107684 0.998775 0.537057
50 1 0.321948 0.809051 0.539447
388 1 0.399629 0.612425 0.442916
348 1 0.787541 0.83658 0.422075
236 1 0.524296 0.735119 0.561696
337 1 0.129292 0.757479 0.596671
176 1 0.230167 0.660074 0.589598
230 1 0.471824 0.646032 0.402913
338 1 0.235195 0.83614 0.69708
358 1 0.0938197 0.791366 0.735751
103 1 0.0432821 0.729735 0.749894
32 1 0.577442 0.769071 0.630336
102 1 0.600166 0.63549 0.688661
206 1 0.100546 0.893085 0.642163
35 1 0.113434 0.69119 0.796757
477 1 0.223031 0.514467 0.747227
310 1 0.247931 0.906141 0.731801
175 1 0.402209 0.896639 0.708819
278 1 0.836068 0.878985 0.767316
195 1 0.193498 0.960207 0.760829
442 1 0.109396 0.870798 0.724094
69 1 0.467224 0.93122 0.701502
409 1 0.0421973 0.971991 0.788628
73 1 0.61019 0.842669 0.731285
449 1 0.579467 0.710029 0.685349
399 1 0.627275 0.562008 0.739024
226 1 0.950145 0.733882 0.725605
155 1 0.959296 0.738279 0.62823
12 1 0.313823 0.797505 0.682737
395 1 0.430284 0.77061 0.783085
456 1 0.880287 0.894313 0.696058
384 1 0.796495 0.613324 0.686235
413 1 0.176194 0.523939 0.689098
174 1 0.160518 0.648094 0.618064
149 1 0.0270531 0.51215 0.74664
182 1 0.115954 0.935413 0.786984
29 1 0.913618 0.812169 0.745953
25 1 0.515165 0.953053 0.643961
200 1 0.392506 0.816959 0.724258
162 1 0.822298 0.694135 0.658905
323 1 0.796855 0.537694 0.699506
345 1 0.926186 0.531706 0.765504
349 1 0.89474 0.607423 0.787254
84 1 0.590707 0.578165 0.646015
344 1 0.922563 0.946512 0.619668
458 1 0.131836 0.591022 0.666288
36 1 0.619381 0.828616 0.656717
284 1 0.862835 0.667288 0.729886
436 1 0.0579001 0.599379 0.722417
291 1 0.617589 0.894348 0.799089
237 1 0.163813 0.794955 0.673117
478 1 0.330877 0.930808 0.724442
227 1 0.980067 0.839086 0.793021
141 1 0.0125754 0.654168 0.609332
509 1 0.881049 0.698821 0.605146
292 1 0.358403 0.791138 0.602772
412 1 0.655543 0.837715 0.953303
131 1 0.552615 0.99151 0.947327
500 1 0.0725818 0.579146 0.885917
137 1 0.584207 0.859015 0.979898
135 1 0.787631 0.651165 0.904903
429 1 0.796672 0.918701 0.824149
382 1 0.705831 0.886218 0.919157
98 1 0.244096 0.734012 0.832979
156 1 0.65579 0.703552 0.927514
153 1 0.762962 0.553087 0.948236
343 1 0.457946 0.52508 0.834005
183 1 0.678025 0.756993 0.973363
439 1 0.863292 0.961221 0.871111
487 1 0.524268 0.909694 0.951967
471 1 0.969066 0.925408 0.821223
437 1 0.431219 0.912515 0.979142
82 1 0.355283 0.796667 0.90894
486 1 0.682199 0.63147 0.844604
136 1 0.495128 0.58114 0.854805
66 1 0.122007 0.90619 0.951314
434 1 0.158659 0.605727 0.993236
81 1 0.397682 0.511487 0.986665
181 1 0.607746 0.541327 0.942836
202 1 0.733356 0.946754 0.872585
387 1 0.0954871 0.840109 0.981538
203 1 0.494903 0.797496 0.819448
150 1 0.496104 0.659323 0.897765
122 1 0.0376469 0.691306 0.967763
364 1 0.297533 0.770345 0.877739
47 1 0.385372 0.847752 0.961978
475 1 0.0856856 0.627721 0.966895
143 1 0.824881 0.626679 0.984718
111 1 0.0145643 0.525803 0.858205
208 1 0.934638 0.925857 0.900169
244 1 0.961334 0.929697 0.968402
401 1 0.500368 0.715935 0.824174
106 1 0.442574 0.98173 0.914559
303 1 0.0519143 0.759123 0.953656
335 1 0.495763 0.626438 0.984507
263 1 0.129132 0.910488 0.868318
374 1 0.731781 0.691538 0.878739
107 1 0.676522 0.585202 0.984542
247 1 0.538212 0.55752 0.987051
99 1 0.0935086 0.618948 0.820282
403 1 0.169232 0.749902 0.818194
375 1 0.641241 0.566366 0.814776
250 1 0.566857 0.838699 0.813417
185 1 0.577779 0.963619 0.805488
