ITEM: TIMESTEP
400
ITEM: NUMBER OF ATOMS
512
ITEM: BOX BOUNDS pp pp pp
0.0000000000000000e+00 1.7235477520000000e+01
0.0000000000000000e+00 1.7235477520000000e+01
0.0000000000000000e+00 1.7235477520000000e+01
ITEM: ATOMS id type xs ys zs
392 1 0.908328 0.384998 0.00696389
237 1 0.154588 0.0374766 0.0540602
99 1 0.23522 0.271056 0.0108685
277 1 0.995571 0.312271 0.111842
196 1 0.710208 0.2355 0.137983
204 1 0.297252 0.455279 0.10409
276 1 0.811943 0.360975 0.11148
116 1 0.127769 0.352961 0.169002
191 1 0.875306 0.486252 0.0375521
263 1 0.258269 0.112204 0.041194
61 1 0.705193 0.477238 0.0630359
303 1 0.0888561 0.00306453 0.133713
214 1 0.460316 0.325613 0.0577735
328 1 0.0100472 0.279676 0.0257008
325 1 0.745984 0.174873 0.1566
500 1 0.56439 0.193855 0.0958815
34 1 0.69399 0.242248 0.0399804
444 1 0.501541 0.161466 0.190615
132 1 0.788383 0.461308 0.0382534
296 1 0.336219 0.148036 0.0390166
59 1 0.966998 0.0440615 0.0387222
445 1 0.453609 0.37159 0.155184
407 1 0.182 0.458523 0.142688
161 1 0.150469 0.292265 0.0424222
493 1 0.0904376 0.484889 0.040972
504 1 0.903516 0.160197 0.0956365
506 1 0.0528791 0.374146 0.123482
192 1 0.754705 0.0338603 0.0858709
478 1 0.400986 0.317913 0.117588
22 1 0.32765 0.485894 0.0421952
376 1 0.0792801 0.24731 0.0713614
388 1 0.517884 0.0442202 0.144691
43 1 0.841517 0.295212 0.069462
459 1 0.483229 0.179796 0.105645
406 1 0.328258 0.219917 0.0140933
15 1 0.113981 0.159112 0.193543
229 1 0.864841 0.232649 0.139339
435 1 0.402584 0.212443 0.14006
55 1 0.934023 0.114758 0.0503069
145 1 0.149233 0.408552 0.0926558
511 1 0.616203 0.200639 0.0464143
152 1 0.414744 0.0755433 0.0443128
199 1 0.0932692 0.173758 0.115635
164 1 0.471229 0.0900081 0.198286
462 1 0.881559 0.346423 0.189673
159 1 0.322355 0.371234 0.148447
244 1 0.209136 0.162545 0.197579
148 1 0.329896 0.00560587 0.1981
411 1 0.0259593 0.364864 0.00984818
211 1 0.658464 0.00835784 0.00698262
321 1 0.776062 0.262844 0.0115489
391 1 0.0542372 0.145858 0.254058
317 1 0.530985 0.475741 0.228526
183 1 0.759968 0.0693323 0.277068
368 1 0.877915 0.290507 0.255476
271 1 0.921326 0.0560636 0.270406
362 1 0.189141 0.0272648 0.26885
92 1 0.399519 0.0868684 0.310976
249 1 0.602906 0.499752 0.207784
157 1 0.130911 0.358637 0.24517
160 1 0.419471 0.0442026 0.236332
266 1 0.626018 0.0497693 0.33971
488 1 0.397776 0.392228 0.303523
60 1 0.719917 0.289009 0.257779
23 1 0.987986 0.294019 0.206629
417 1 0.434696 0.211979 0.234783
315 1 0.694962 0.312595 0.350991
400 1 0.050529 0.126144 0.315082
345 1 0.668388 0.25591 0.375953
355 1 0.70132 0.026507 0.311802
508 1 0.853415 0.227089 0.212084
333 1 0.605428 0.143802 0.241067
24 1 0.964408 0.213794 0.37735
287 1 0.891885 0.0697717 0.352443
72 1 0.478988 0.372701 0.312092
257 1 0.925154 0.137924 0.303495
405 1 0.869857 0.396486 0.348329
166 1 0.354965 0.00411351 0.287554
194 1 0.208446 0.107779 0.2371
41 1 0.924005 0.477169 0.34019
213 1 0.695078 0.150631 0.270732
281 1 0.56473 0.213266 0.251732
243 1 0.395667 0.401974 0.221329
273 1 0.692374 0.112742 0.357417
81 1 0.724932 0.365934 0.268089
477 1 0.151149 0.181287 0.329664
480 1 0.136288 0.299461 0.292215
42 1 0.55575 0.0898548 0.252897
384 1 0.262374 0.44917 0.267859
348 1 0.397339 0.492904 0.218188
31 1 0.443725 0.188483 0.35294
309 1 0.129856 0.417066 0.34503
173 1 0.0901497 0.480772 0.345545
37 1 0.602393 0.288041 0.277882
286 1 0.375805 0.158011 0.307515
2 1 0.313031 0.0560065 0.33305
52 1 0.790086 0.208715 0.241898
13 1 0.771293 0.43677 0.27535
359 1 0.814303 0.0495416 0.229106
233 1 0.957168 0.361633 0.212059
469 1 0.547048 0.390999 0.327263
339 1 0.96708 0.0274947 0.232791
217 1 0.386622 0.350989 0.384966
313 1 0.259664 0.299001 0.322003
84 1 0.289415 0.431125 0.32759
369 1 0.999408 0.443103 0.328367
319 1 0.223146 0.145082 0.376573
492 1 0.260178 0.0343972 0.379359
427 1 0.340529 0.400937 0.389498
239 1 0.249733 0.395832 0.208239
91 1 0.2004 0.439641 0.498349
101 1 0.338128 0.0216404 0.49336
448 1 0.895604 0.34192 0.492697
297 1 0.244398 0.310725 0.411074
382 1 0.678895 0.143286 0.441281
365 1 0.54049 0.385145 0.44598
122 1 0.880869 0.477636 0.561063
401 1 0.276319 0.465843 0.467298
51 1 0.786721 0.233215 0.525325
80 1 0.979234 0.384715 0.504287
420 1 0.579476 0.328328 0.502754
112 1 0.141264 0.287137 0.475476
232 1 0.957984 0.0921298 0.518739
76 1 0.306899 0.41983 0.534405
74 1 0.349554 0.359746 0.51105
375 1 0.789475 0.0364295 0.437764
231 1 0.790664 0.254363 0.447938
386 1 0.939534 0.0307085 0.552361
220 1 0.8332 0.297334 0.531807
342 1 0.643567 0.20955 0.582162
190 1 0.0988074 0.270497 0.546198
424 1 0.455837 0.23708 0.549851
177 1 0.107137 0.472139 0.509617
288 1 0.505047 0.279355 0.524903
219 1 0.129455 0.21386 0.590348
473 1 0.35146 0.0195199 0.55745
58 1 0.270098 0.080648 0.452937
264 1 0.872965 0.356414 0.406034
349 1 0.964381 0.4758 0.450097
351 1 0.740033 0.418648 0.45383
89 1 0.654704 0.296546 0.506404
451 1 0.775242 0.165934 0.471623
481 1 0.828341 0.110582 0.429398
95 1 0.927057 0.269501 0.431501
259 1 0.670722 0.04487 0.492635
269 1 0.969043 0.189275 0.573349
250 1 0.554215 0.454257 0.407592
447 1 0.953732 0.470026 0.518985
144 1 0.206387 0.336548 0.480372
119 1 0.68993 0.345444 0.577163
224 1 0.705555 0.17213 0.546475
302 1 0.0885998 0.396759 0.580147
300 1 0.0528964 0.343199 0.486683
370 1 0.703354 0.466394 0.490253
19 1 0.0263794 0.2372 0.573885
483 1 0.182173 0.233331 0.406167
491 1 0.416446 0.134297 0.717569
182 1 0.964682 0.100654 0.791117
482 1 0.387781 0.0691113 0.773659
295 1 0.764368 0.0496019 0.674867
320 1 0.702959 0.0597609 0.760264
505 1 0.13768 0.0881607 0.623419
284 1 0.654943 0.400955 0.695184
272 1 0.654149 0.304377 0.698688
138 1 0.798325 0.470534 0.678148
135 1 0.886607 0.0599513 0.797048
415 1 0.279896 0.20215 0.695653
430 1 0.622031 0.173084 0.703456
189 1 0.17539 0.193772 0.65147
498 1 0.894014 0.0423338 0.6209
187 1 0.864821 0.48697 0.635596
289 1 0.192266 0.425154 0.738365
475 1 0.931559 0.458017 0.721702
307 1 0.381613 0.22735 0.68631
346 1 0.133064 0.259206 0.681672
512 1 0.567817 0.129992 0.660896
62 1 0.444618 0.0200004 0.615157
432 1 0.767774 0.451212 0.764103
454 1 0.411558 0.425858 0.603189
336 1 0.23845 0.453482 0.627108
260 1 0.811355 0.213138 0.709249
381 1 0.0764944 0.188074 0.744339
238 1 0.119911 0.13333 0.720619
40 1 0.975825 0.419962 0.68876
267 1 0.33225 0.307123 0.752976
403 1 0.848534 0.14955 0.68012
261 1 0.410458 0.475832 0.791099
274 1 0.768047 0.10735 0.725946
364 1 0.335548 0.216647 0.624897
429 1 0.63907 0.448765 0.74793
248 1 0.76287 0.266264 0.727271
210 1 0.408813 0.370489 0.652577
494 1 0.942046 0.251234 0.797269
18 1 0.470644 0.410161 0.765366
73 1 0.402301 0.311484 0.715914
433 1 0.658192 0.243379 0.72644
394 1 0.239894 0.352967 0.704351
1 1 0.157372 0.0799446 0.766287
11 1 0.092627 0.0264358 0.621782
389 1 0.779277 0.332557 0.765679
490 1 0.455678 0.0757119 0.671716
305 1 0.902129 0.127384 0.635405
222 1 0.0218185 0.416402 0.628085
421 1 0.00133327 0.212785 0.771967
495 1 0.505812 0.0157782 0.754728
234 1 0.257007 0.161746 0.744827
111 1 0.113862 0.0162413 0.777953
129 1 0.642867 0.421004 0.610305
107 1 0.675106 0.20871 0.794727
372 1 0.453174 0.134085 0.799906
141 1 0.22615 0.0899607 0.791221
171 1 0.573912 0.185825 0.606461
442 1 0.0299293 0.0428614 0.816466
450 1 0.753652 0.237704 0.905676
121 1 0.254438 0.216524 0.938341
71 1 0.372667 0.483291 0.969141
353 1 0.940757 0.179987 0.826714
54 1 0.320401 0.302663 0.901936
457 1 0.539612 0.360032 0.924061
87 1 0.832578 0.392474 0.810579
193 1 0.619563 0.114947 0.913875
6 1 0.0262348 0.441076 0.911716
378 1 0.0413094 0.443952 0.995994
347 1 0.133479 0.0154707 0.957089
486 1 0.370613 0.456458 0.860084
464 1 0.553606 0.419537 0.87498
29 1 0.193155 0.0889741 0.938756
209 1 0.326659 0.249213 0.807991
422 1 0.518892 0.0752763 0.918732
487 1 0.866701 0.125024 0.836908
472 1 0.405368 0.179172 0.907493
265 1 0.200837 0.160318 0.975707
314 1 0.318438 0.151061 0.875464
256 1 0.754597 0.45932 0.911604
329 1 0.0936585 0.0741635 0.835526
106 1 0.677522 0.157259 0.966875
153 1 0.886032 0.382204 0.893637
123 1 0.211628 0.445812 0.868923
497 1 0.936952 0.150858 0.968861
82 1 0.967922 0.398864 0.863423
113 1 0.845653 0.496651 0.942946
163 1 0.500275 0.305077 0.991334
258 1 0.408357 0.273779 0.963004
4 1 0.37857 0.382984 0.893938
338 1 0.706785 0.46129 0.984895
215 1 0.302714 0.103734 0.804311
363 1 0.0793091 0.470394 0.833615
98 1 0.685646 0.0636056 0.957114
88 1 0.635104 0.131985 0.832778
460 1 0.242499 0.298448 0.913116
136 1 0.68527 0.349983 0.866586
156 1 0.189573 0.479849 0.996613
133 1 0.736363 0.0202548 0.801993
449 1 0.210793 0.371066 0.933038
8 1 0.752729 0.196854 0.83854
49 1 0.473964 0.13118 0.883934
245 1 0.974302 0.220051 0.969554
221 1 0.673072 0.293997 0.92128
185 1 0.449038 0.0688589 0.98179
293 1 0.194813 0.388507 0.811896
275 1 0.912321 0.449043 0.806869
103 1 0.808888 0.159455 0.80458
467 1 0.554922 0.420015 0.801221
68 1 0.944052 0.918619 0.128327
410 1 0.23086 0.618337 0.0660127
456 1 0.483013 0.811642 0.159618
270 1 0.324436 0.892882 0.111079
489 1 0.0193369 0.673649 0.127074
105 1 0.520448 0.93112 0.0580098
419 1 0.696815 0.602758 0.116848
436 1 0.943369 0.951924 0.0590975
246 1 0.471516 0.84347 0.058833
285 1 0.202058 0.720943 0.19936
27 1 0.222378 0.686094 0.120462
404 1 0.922638 0.719074 0.0321986
33 1 0.755101 0.905828 0.144267
255 1 0.394394 0.897941 0.0708413
350 1 0.670217 0.741602 0.141404
373 1 0.755916 0.747226 0.0728177
409 1 0.844452 0.82818 0.184151
230 1 0.386636 0.920116 0.135947
331 1 0.788004 0.605924 0.0095096
322 1 0.143661 0.550486 0.120581
66 1 0.768592 0.894263 0.0766148
20 1 0.677187 0.528818 0.108622
44 1 0.691324 0.676114 0.0519248
45 1 0.289319 0.721132 0.16335
316 1 0.974093 0.655363 0.0533467
114 1 0.182141 0.978201 0.117703
242 1 0.244265 0.927077 0.10779
292 1 0.54579 0.98566 0.112518
169 1 0.378826 0.651098 0.0665348
440 1 0.188345 0.544672 0.0418519
139 1 0.399841 0.613867 0.131257
125 1 0.800866 0.805399 0.0763076
390 1 0.562816 0.628984 0.129968
83 1 0.90004 0.78868 0.054654
108 1 0.743508 0.625309 0.175178
396 1 0.968832 0.720662 0.174948
181 1 0.624418 0.713206 0.0794563
340 1 0.362701 0.538946 0.129907
128 1 0.551713 0.565357 0.0888448
367 1 0.730343 0.968686 0.0518484
35 1 0.482428 0.558662 0.190055
5 1 0.0638041 0.613581 0.119782
126 1 0.790538 0.70272 0.144477
203 1 0.0388023 0.606177 0.0101893
434 1 0.0603517 0.98907 0.05702
366 1 0.212851 0.886649 0.173093
21 1 0.868397 0.672836 0.18303
452 1 0.433553 0.898678 0.0178834
327 1 0.601928 0.507984 0.134148
476 1 0.010942 0.860792 0.199791
75 1 0.04258 0.734594 0.283315
335 1 0.694972 0.593557 0.252203
324 1 0.87956 0.691229 0.292153
197 1 0.427802 0.887335 0.256251
180 1 0.813847 0.922963 0.220582
93 1 0.626053 0.699555 0.344226
85 1 0.190383 0.522126 0.306954
14 1 0.305278 0.586166 0.309096
165 1 0.354973 0.643627 0.306703
134 1 0.216877 0.948641 0.236175
137 1 0.662442 0.706028 0.276867
176 1 0.549016 0.641222 0.213663
77 1 0.937005 0.622637 0.309155
343 1 0.0780897 0.932247 0.230824
46 1 0.751367 0.534675 0.296154
86 1 0.557385 0.99183 0.298549
142 1 0.54849 0.889055 0.341954
16 1 0.491179 0.61214 0.398603
188 1 0.0860607 0.810576 0.332971
385 1 0.456678 0.781403 0.352269
399 1 0.874676 0.746968 0.393172
509 1 0.47446 0.839012 0.246455
291 1 0.225859 0.585342 0.301439
311 1 0.680816 0.782326 0.215617
485 1 0.804585 0.585925 0.226084
251 1 0.210175 0.974024 0.332307
102 1 0.427095 0.62038 0.335318
158 1 0.469582 0.927527 0.336362
283 1 0.782395 0.759261 0.216788
247 1 0.679622 0.885951 0.363775
341 1 0.80262 0.943731 0.346983
150 1 0.527423 0.739191 0.31132
301 1 0.494858 0.677711 0.269027
298 1 0.926035 0.557746 0.358275
225 1 0.10888 0.913739 0.331598
179 1 0.996419 0.777431 0.224117
262 1 0.905545 0.778128 0.24419
380 1 0.677772 0.65156 0.32476
344 1 0.629331 0.892945 0.314654
198 1 0.238119 0.797242 0.23137
310 1 0.693384 0.607584 0.397922
104 1 0.889336 0.564005 0.224006
10 1 0.313723 0.809228 0.258745
140 1 0.384181 0.80346 0.313518
290 1 0.997395 0.721423 0.358646
387 1 0.0415534 0.791026 0.399528
47 1 0.00133445 0.959704 0.200844
371 1 0.749902 0.551639 0.391116
463 1 0.757139 0.722201 0.470412
438 1 0.539988 0.531195 0.465169
330 1 0.0820784 0.905614 0.418743
358 1 0.0685232 0.790266 0.493769
184 1 0.293076 0.588916 0.515659
63 1 0.164542 0.89087 0.484108
195 1 0.667291 0.500214 0.560867
120 1 0.42167 0.50723 0.580013
453 1 0.638026 0.842114 0.487683
110 1 0.538531 0.873115 0.565693
154 1 0.91597 0.540425 0.427175
167 1 0.79885 0.773551 0.572188
3 1 0.934423 0.694631 0.426018
236 1 0.9372 0.690459 0.511077
398 1 0.328437 0.906767 0.502222
312 1 0.027488 0.895264 0.479102
279 1 0.250262 0.908406 0.47442
50 1 0.735699 0.89334 0.422252
162 1 0.325773 0.793363 0.489852
278 1 0.504308 0.742713 0.526852
168 1 0.532104 0.905863 0.50292
30 1 0.742033 0.850297 0.582756
228 1 0.530373 0.649294 0.513764
39 1 0.814389 0.689088 0.420239
253 1 0.98637 0.966871 0.561691
240 1 0.622079 0.974731 0.50303
79 1 0.455092 0.556689 0.435428
127 1 0.941322 0.772876 0.542742
323 1 0.845668 0.558608 0.540496
356 1 0.872109 0.817385 0.567472
205 1 0.574737 0.583748 0.55847
294 1 0.489836 0.667612 0.439301
393 1 0.376448 0.540451 0.472985
218 1 0.297115 0.904257 0.596438
308 1 0.891677 0.631949 0.559276
470 1 0.70794 0.829849 0.491432
383 1 0.334761 0.812781 0.572829
474 1 0.502017 0.789465 0.460583
252 1 0.0885126 0.704003 0.542755
38 1 0.157483 0.506842 0.56872
170 1 0.224601 0.626277 0.506874
65 1 0.308124 0.797133 0.423649
9 1 0.125835 0.82838 0.523973
155 1 0.6179 0.665571 0.529459
441 1 0.789508 0.977185 0.408989
413 1 0.226439 0.841378 0.42526
352 1 0.5578 0.963864 0.553132
361 1 0.49628 0.859896 0.404472
502 1 0.152517 0.571848 0.594419
455 1 0.622927 0.689414 0.597113
124 1 0.281353 0.641954 0.782735
254 1 0.949785 0.60003 0.744761
174 1 0.118135 0.952679 0.62145
458 1 0.153576 0.573831 0.72494
414 1 0.753663 0.650114 0.717667
465 1 0.464559 0.696146 0.770702
17 1 0.966443 0.903259 0.737381
90 1 0.29687 0.977852 0.625524
425 1 0.821402 0.590446 0.68861
374 1 0.502145 0.806712 0.733584
357 1 0.0119268 0.9807 0.633178
200 1 0.210361 0.682549 0.78389
115 1 0.150321 0.83145 0.709334
78 1 0.563439 0.647622 0.643842
503 1 0.905266 0.835652 0.690898
337 1 0.473632 0.576791 0.670555
377 1 0.029079 0.744643 0.660461
501 1 0.639009 0.797371 0.772899
466 1 0.887608 0.539288 0.79267
360 1 0.882666 0.868865 0.619455
149 1 0.100153 0.876828 0.636553
318 1 0.602553 0.588352 0.690483
426 1 0.598429 0.99754 0.775285
499 1 0.37822 0.59331 0.643249
201 1 0.0605218 0.625468 0.71296
97 1 0.951449 0.774211 0.625689
354 1 0.232636 0.848277 0.717326
96 1 0.433451 0.777226 0.715444
100 1 0.817676 0.994649 0.635108
202 1 0.481716 0.572098 0.756218
379 1 0.0672188 0.830222 0.678475
484 1 0.89853 0.885258 0.761442
223 1 0.719766 0.626928 0.790359
117 1 0.658183 0.83007 0.696303
56 1 0.250411 0.703147 0.714734
12 1 0.951873 0.662329 0.710633
172 1 0.279934 0.654895 0.650875
131 1 0.601996 0.875735 0.605048
332 1 0.229197 0.789639 0.670373
64 1 0.305045 0.893216 0.701673
428 1 0.83622 0.635538 0.622926
25 1 0.675678 0.58798 0.728209
53 1 0.296657 0.90151 0.776574
496 1 0.267061 0.816382 0.602746
109 1 0.801165 0.9027 0.610212
28 1 0.712965 0.666333 0.646859
510 1 0.232917 0.508796 0.708418
186 1 0.566796 0.809407 0.797908
235 1 0.124378 0.719981 0.795586
268 1 0.0720437 0.656681 0.60805
143 1 0.539063 0.602321 0.873666
416 1 0.358192 0.813528 0.870357
304 1 0.123677 0.590466 0.82188
94 1 0.0982193 0.789965 0.935599
118 1 0.0123962 0.788765 0.959601
402 1 0.852572 0.656556 0.980372
70 1 0.27876 0.6722 0.868909
130 1 0.522172 0.950855 0.821297
306 1 0.638071 0.968723 0.830778
216 1 0.390797 0.637074 0.966763
147 1 0.312037 0.692755 0.947898
479 1 0.683877 0.76356 0.854765
241 1 0.292787 0.615813 0.999686
206 1 0.526717 0.852763 0.851272
32 1 0.843216 0.645568 0.843606
397 1 0.915914 0.584246 0.966141
7 1 0.274446 0.595609 0.907209
57 1 0.575015 0.938281 0.98123
26 1 0.792086 0.702105 0.893616
471 1 0.898152 0.85411 0.824037
280 1 0.592698 0.916245 0.886022
226 1 0.670802 0.549696 0.9485
468 1 0.0643715 0.552991 0.87868
412 1 0.985486 0.819472 0.816392
151 1 0.413138 0.77359 0.811797
431 1 0.0833504 0.596087 0.950432
178 1 0.52545 0.994661 0.906609
437 1 0.106258 0.773413 0.845165
212 1 0.848919 0.566738 0.849819
175 1 0.957549 0.952081 0.910364
443 1 0.770561 0.519254 0.838514
439 1 0.390195 0.986213 0.821544
67 1 0.951993 0.79717 0.99957
418 1 0.904303 0.948899 0.977068
395 1 0.163694 0.903045 0.840044
408 1 0.152729 0.993331 0.869918
446 1 0.482345 0.636571 0.804794
299 1 0.355028 0.556699 0.926845
334 1 0.361984 0.765154 0.944578
423 1 0.463836 0.643015 0.919203
282 1 0.620815 0.543456 0.884669
326 1 0.879464 0.898959 0.881786
227 1 0.291557 0.947379 0.843782
146 1 0.324638 0.878267 0.900103
48 1 0.238627 0.872367 0.882185
36 1 0.076754 0.650586 0.812445
69 1 0.4835 0.730541 0.967047
461 1 0.712155 0.569598 0.873691
208 1 0.482113 0.794686 0.994246
207 1 0.692841 0.782167 0.931372
507 1 0.192081 0.511809 0.917392
