ITEM: TIMESTEP
500
ITEM: NUMBER OF ATOMS
512
ITEM: BOX BOUNDS pp pp pp
0.0000000000000000e+00 1.7235477520000000e+01
0.0000000000000000e+00 1.7235477520000000e+01
0.0000000000000000e+00 1.7235477520000000e+01
ITEM: ATOMS id type xs ys zs
233 1 0.822958 0.231139 0.151189
163 1 0.447916 0.391591 0.017553
255 1 0.391503 0.0325744 0.0224962
277 1 0.917929 0.297697 0.0399859
98 1 0.636687 0.082973 0.0613973
204 1 0.354017 0.399148 0.104895
276 1 0.761698 0.409217 0.083755
116 1 0.163928 0.302872 0.0675798
321 1 0.70168 0.329974 0.0395322
299 1 0.40999 0.496722 0.0175471
378 1 0.0533496 0.418529 0.0518046
134 1 0.133569 0.00919246 0.115097
214 1 0.408252 0.323951 0.0572945
333 1 0.653842 0.115097 0.146205
37 1 0.597167 0.231101 0.152854
500 1 0.567316 0.0798185 0.0016993
34 1 0.698811 0.287153 0.1787
243 1 0.376326 0.435852 0.177664
104 1 0.820834 0.474061 0.130193
108 1 0.729594 0.498669 0.180648
35 1 0.484119 0.386689 0.137093
445 1 0.462334 0.298055 0.119297
407 1 0.277159 0.385534 0.0762629
161 1 0.164117 0.183939 0.162842
493 1 0.0843436 0.436013 0.121992
368 1 0.789174 0.303301 0.153871
506 1 0.20609 0.406275 0.100028
23 1 0.895956 0.205798 0.159843
478 1 0.330997 0.23641 0.0898159
362 1 0.267033 0.0549635 0.188945
376 1 0.00673974 0.187861 0.031316
281 1 0.582893 0.167112 0.184169
43 1 0.797725 0.333554 0.0306946
459 1 0.445021 0.161666 0.0444325
106 1 0.603243 0.0143808 0.156121
15 1 0.103713 0.132068 0.18315
317 1 0.566271 0.441562 0.176024
435 1 0.367031 0.187288 0.0449313
328 1 0.990479 0.27297 0.07705
145 1 0.167082 0.470176 0.131514
511 1 0.676391 0.215988 0.132129
152 1 0.498559 0.10978 0.0504914
411 1 0.00312683 0.366733 0.0240323
192 1 0.805878 0.00306118 0.0544794
462 1 0.69503 0.431901 0.141244
159 1 0.257893 0.302061 0.143685
244 1 0.178748 0.210422 0.0728991
450 1 0.626157 0.333987 0.000910975
164 1 0.463037 0.0370979 0.180014
508 1 0.777587 0.394811 0.182961
325 1 0.624862 0.303327 0.198037
504 1 0.93723 0.133409 0.182963
217 1 0.357528 0.362934 0.197089
71 1 0.332801 0.453978 0.00316477
265 1 0.106527 0.201443 0.0194507
391 1 0.076605 0.0463202 0.223769
417 1 0.466231 0.207394 0.225271
183 1 0.7262 0.138589 0.267615
14 1 0.193819 0.437034 0.333494
264 1 0.882561 0.414146 0.337092
199 1 0.00948749 0.107334 0.218344
92 1 0.357958 0.235707 0.306955
86 1 0.492819 0.107089 0.288715
157 1 0.111596 0.316027 0.308324
251 1 0.0874373 0.0907538 0.306494
420 1 0.710313 0.355217 0.34371
488 1 0.397657 0.311081 0.215034
60 1 0.572715 0.435865 0.252769
401 1 0.325195 0.332887 0.397296
196 1 0.561059 0.29077 0.285098
239 1 0.471677 0.283188 0.20522
400 1 0.208492 0.236459 0.253602
84 1 0.268786 0.293963 0.357061
355 1 0.749974 0.0526416 0.285622
101 1 0.272887 0.0582674 0.346545
142 1 0.554298 0.0326793 0.278366
492 1 0.188126 0.0933062 0.322754
95 1 0.830734 0.359257 0.368661
72 1 0.48971 0.353783 0.394234
286 1 0.456179 0.224605 0.306483
405 1 0.894368 0.464479 0.291516
313 1 0.308182 0.225079 0.368083
194 1 0.312666 0.00791961 0.221618
2 1 0.167843 0.0238887 0.367776
213 1 0.640504 0.143972 0.233789
13 1 0.723984 0.434017 0.381601
319 1 0.220796 0.119564 0.243493
273 1 0.81424 0.0873366 0.343721
81 1 0.545746 0.375005 0.310617
477 1 0.108063 0.196321 0.336606
480 1 0.145756 0.244425 0.292458
42 1 0.629137 0.00817099 0.239604
384 1 0.239828 0.377386 0.324381
427 1 0.304797 0.417541 0.357066
31 1 0.490159 0.28125 0.344329
309 1 0.119668 0.337023 0.214717
173 1 0.160048 0.402651 0.232633
52 1 0.763489 0.395122 0.288114
180 1 0.818661 0.0249163 0.34784
444 1 0.49892 0.141115 0.202378
91 1 0.111222 0.39629 0.453176
352 1 0.582006 0.00562936 0.56775
448 1 0.879663 0.38235 0.480825
447 1 0.834352 0.485046 0.585305
257 1 0.966377 0.10275 0.434421
365 1 0.656561 0.379648 0.411532
345 1 0.719703 0.119993 0.509874
272 1 0.666832 0.276826 0.573629
62 1 0.519986 0.0666638 0.525365
80 1 0.869826 0.459614 0.510662
250 1 0.479571 0.465615 0.474235
112 1 0.15012 0.254036 0.429926
232 1 0.935278 0.046623 0.477157
76 1 0.297912 0.319855 0.492811
74 1 0.37369 0.326087 0.540536
297 1 0.263337 0.157974 0.400272
231 1 0.829093 0.217825 0.520523
386 1 0.864599 0.0442918 0.538353
481 1 0.672917 0.0709366 0.475119
315 1 0.772597 0.21745 0.489256
190 1 0.190617 0.395163 0.559168
424 1 0.53101 0.191929 0.593032
177 1 0.11898 0.414676 0.530836
171 1 0.653676 0.148126 0.553131
454 1 0.468651 0.308631 0.534859
473 1 0.441528 0.0244769 0.538147
38 1 0.254999 0.30728 0.566708
240 1 0.585591 0.131073 0.516791
24 1 0.765252 0.332398 0.504667
351 1 0.561087 0.440215 0.50344
89 1 0.635676 0.369062 0.485357
451 1 0.775948 0.299493 0.575338
287 1 0.848384 0.0958931 0.469841
195 1 0.516498 0.46341 0.597495
259 1 0.618417 0.099537 0.426926
269 1 0.934046 0.260287 0.565463
483 1 0.159016 0.182309 0.410941
288 1 0.501772 0.277918 0.586469
144 1 0.123666 0.326013 0.436427
129 1 0.656143 0.491726 0.594547
224 1 0.636226 0.344842 0.592617
19 1 0.986984 0.305428 0.582504
300 1 0.0285502 0.370588 0.597806
469 1 0.444611 0.399946 0.437101
491 1 0.490445 0.106404 0.720113
219 1 0.180898 0.256934 0.687212
510 1 0.244409 0.318947 0.66285
295 1 0.704193 0.115902 0.680283
320 1 0.604327 0.118108 0.684551
505 1 0.0942837 0.0122031 0.713153
284 1 0.639325 0.392109 0.735715
495 1 0.525726 0.0235044 0.709235
138 1 0.896925 0.484072 0.77889
49 1 0.544412 0.273088 0.724547
415 1 0.326356 0.170595 0.709328
430 1 0.584562 0.140098 0.762258
189 1 0.276911 0.162326 0.644862
372 1 0.522992 0.387865 0.77922
187 1 0.941332 0.474672 0.702458
289 1 0.151585 0.428647 0.756734
498 1 0.836261 0.0720877 0.608783
307 1 0.483714 0.164882 0.656049
346 1 0.20851 0.203037 0.629513
512 1 0.538991 0.202608 0.762234
215 1 0.349377 0.129915 0.775178
209 1 0.438235 0.392903 0.73708
100 1 0.739936 0.0729889 0.614207
119 1 0.760073 0.268934 0.656269
260 1 0.857216 0.226612 0.720613
381 1 0.119876 0.318817 0.697982
238 1 0.202016 0.10049 0.645344
40 1 0.0878777 0.464249 0.75024
267 1 0.357078 0.378483 0.67693
403 1 0.940737 0.219313 0.660055
426 1 0.698377 0.0949406 0.767311
274 1 0.79243 0.170681 0.713643
364 1 0.401575 0.10677 0.7076
429 1 0.621663 0.373041 0.664561
499 1 0.493948 0.478062 0.698957
210 1 0.49949 0.27065 0.665878
221 1 0.779031 0.38304 0.76281
103 1 0.792621 0.0892249 0.754948
73 1 0.339156 0.326912 0.614683
170 1 0.423379 0.462857 0.720198
394 1 0.289564 0.381892 0.714188
1 1 0.247119 0.0238276 0.629811
11 1 0.129725 0.0823184 0.700231
389 1 0.805055 0.332077 0.670322
490 1 0.560679 0.0561079 0.643356
305 1 0.939951 0.148567 0.65245
222 1 0.15511 0.462156 0.626802
421 1 0.0375072 0.304681 0.756894
234 1 0.362712 0.0435288 0.73519
136 1 0.609132 0.481908 0.769085
293 1 0.225541 0.441515 0.727409
353 1 0.951585 0.219581 0.793321
487 1 0.872221 0.0744756 0.765867
432 1 0.789304 0.467568 0.757991
253 1 0.965287 0.0459771 0.608553
302 1 0.0827545 0.402389 0.649245
342 1 0.646112 0.208328 0.607304
406 1 0.256652 0.22878 0.948489
245 1 0.780556 0.311812 0.925216
121 1 0.179658 0.245561 0.974896
135 1 0.921614 0.0698661 0.817948
211 1 0.754428 0.0138592 0.99769
54 1 0.456475 0.446606 0.805821
457 1 0.54375 0.405865 0.970823
87 1 0.77832 0.365554 0.840744
193 1 0.616869 0.00493298 0.83913
6 1 0.912036 0.484174 0.962219
408 1 0.12253 0.0353622 0.871713
347 1 0.108464 0.0257866 0.952071
494 1 0.0257786 0.240134 0.806429
464 1 0.491899 0.364045 0.870159
248 1 0.889807 0.267986 0.803574
482 1 0.339301 0.118029 0.866981
422 1 0.512445 0.0166308 0.891933
70 1 0.399105 0.464701 0.917849
472 1 0.449235 0.299429 0.853564
296 1 0.295866 0.151965 0.98574
314 1 0.405424 0.245132 0.969791
467 1 0.560075 0.429964 0.809174
433 1 0.72547 0.150911 0.897663
132 1 0.799833 0.439737 0.902233
153 1 0.868938 0.406268 0.950952
123 1 0.140297 0.322708 0.943821
497 1 0.835912 0.296915 0.849303
82 1 0.944487 0.453072 0.896816
226 1 0.650953 0.478193 0.919287
185 1 0.518727 0.0699991 0.947865
258 1 0.454349 0.251306 0.906191
4 1 0.330589 0.424604 0.933447
338 1 0.574966 0.467574 0.928068
229 1 0.854978 0.341737 0.982724
363 1 0.0741817 0.359597 0.951275
439 1 0.352443 0.0310664 0.864545
88 1 0.68613 0.0348841 0.873734
460 1 0.321616 0.300784 0.943623
182 1 0.993823 0.0776398 0.812331
107 1 0.686069 0.228221 0.886627
133 1 0.763578 0.119911 0.834454
449 1 0.287726 0.359272 0.933109
8 1 0.654462 0.275399 0.949083
29 1 0.177807 0.0613239 0.951921
99 1 0.0385782 0.204215 0.974633
442 1 0.0734235 0.0953752 0.814615
263 1 0.255829 0.0758792 0.962714
68 1 0.926643 0.818827 0.117769
22 1 0.389191 0.505158 0.166232
456 1 0.530979 0.775397 0.115914
359 1 0.861968 0.947385 0.0821349
489 1 0.0510916 0.560473 0.143307
105 1 0.508767 0.861957 0.0818462
419 1 0.710707 0.552393 0.115966
436 1 0.941863 0.760668 0.0584486
246 1 0.58064 0.771858 0.0391551
303 1 0.141946 0.93858 0.0872116
118 1 0.057326 0.867466 0.00220229
507 1 0.236747 0.63648 0.0300743
160 1 0.375837 0.977628 0.189972
55 1 0.021893 0.952645 0.155284
350 1 0.703548 0.753535 0.151907
373 1 0.668172 0.765941 0.0390354
341 1 0.868757 0.918393 0.157016
397 1 0.881868 0.571385 0.163948
476 1 0.941406 0.76422 0.184476
148 1 0.400953 0.999286 0.097129
66 1 0.710408 0.904409 0.0881157
20 1 0.697726 0.61024 0.0611534
44 1 0.798626 0.609724 0.112667
156 1 0.187238 0.680347 0.0539947
61 1 0.80409 0.548175 0.0744648
114 1 0.285336 0.954667 0.17786
237 1 0.285083 0.995212 0.000703681
292 1 0.525316 0.895926 0.153456
169 1 0.373392 0.621676 0.0590973
440 1 0.121346 0.639489 0.00905934
139 1 0.469537 0.654729 0.0532949
125 1 0.670707 0.837173 0.0269977
390 1 0.572595 0.545746 0.132116
348 1 0.535409 0.699802 0.0969202
402 1 0.830722 0.653852 0.156022
396 1 0.0270924 0.603495 0.195556
181 1 0.65211 0.68524 0.0806313
340 1 0.367766 0.577176 0.139933
388 1 0.512842 0.982604 0.156686
367 1 0.753335 0.942701 0.1748
327 1 0.555367 0.544815 0.0450951
410 1 0.219672 0.786492 0.0366399
83 1 0.975504 0.699921 0.0247848
179 1 0.897876 0.690152 0.178959
67 1 0.0726657 0.717867 0.0413385
93 1 0.595861 0.839935 0.172632
452 1 0.435435 0.959222 0.0165304
59 1 0.0535774 0.985536 0.0897787
137 1 0.667082 0.880727 0.163761
306 1 0.663661 0.964102 0.0094189
241 1 0.287796 0.664629 0.154695
94 1 0.104165 0.785996 0.0129616
311 1 0.720361 0.816628 0.192021
418 1 0.962674 0.829117 0.00181107
75 1 0.983035 0.764173 0.337215
335 1 0.622018 0.554268 0.267649
324 1 0.780185 0.701833 0.32773
197 1 0.492753 0.943242 0.343655
21 1 0.966939 0.641494 0.239281
361 1 0.497894 0.984137 0.263972
271 1 0.910843 0.842604 0.213117
5 1 0.192377 0.580448 0.27319
266 1 0.719155 0.992922 0.216942
339 1 0.0387309 0.942107 0.228581
41 1 0.0388804 0.585989 0.392925
270 1 0.305539 0.886561 0.245177
77 1 0.0763465 0.64903 0.340159
85 1 0.140603 0.54251 0.204092
46 1 0.690834 0.569952 0.308785
409 1 0.828026 0.738363 0.262138
45 1 0.359899 0.646803 0.219105
366 1 0.218947 0.827335 0.276747
188 1 0.0293833 0.819166 0.390881
385 1 0.494426 0.724017 0.352506
399 1 0.827737 0.663608 0.388697
509 1 0.611166 0.793258 0.247747
291 1 0.133345 0.578426 0.343493
166 1 0.101166 0.850285 0.373079
485 1 0.752707 0.550584 0.247422
126 1 0.829733 0.549763 0.240827
249 1 0.553185 0.586885 0.281583
158 1 0.526059 0.792538 0.337421
285 1 0.117664 0.718003 0.230149
47 1 0.00723167 0.916393 0.315056
369 1 0.105576 0.527199 0.388775
150 1 0.552832 0.73264 0.264801
247 1 0.660447 0.848655 0.319278
154 1 0.906054 0.531476 0.297203
225 1 0.128978 0.939858 0.363033
27 1 0.246524 0.677613 0.341315
262 1 0.913239 0.832467 0.300343
322 1 0.202841 0.680638 0.243189
344 1 0.695448 0.799957 0.335329
198 1 0.147759 0.790289 0.300776
371 1 0.704042 0.602959 0.373045
283 1 0.767676 0.808176 0.263974
10 1 0.40564 0.581593 0.267151
140 1 0.381314 0.690893 0.338641
290 1 0.00527706 0.688251 0.340338
441 1 0.820728 0.94716 0.342203
65 1 0.299936 0.742133 0.364473
230 1 0.384216 0.922002 0.237587
168 1 0.578039 0.960784 0.348249
58 1 0.298817 0.976618 0.34028
343 1 0.0617003 0.958255 0.354773
375 1 0.674309 0.975056 0.375795
63 1 0.183825 0.822486 0.394362
50 1 0.743044 0.932998 0.367838
33 1 0.795208 0.875539 0.209575
301 1 0.525559 0.679016 0.205164
102 1 0.352038 0.647087 0.397973
242 1 0.219173 0.875637 0.209251
176 1 0.553925 0.585602 0.211447
463 1 0.727898 0.687424 0.489624
438 1 0.507746 0.545265 0.473022
330 1 0.0683595 0.953301 0.472436
358 1 0.0221262 0.690414 0.502787
184 1 0.279679 0.507189 0.594255
370 1 0.599936 0.507372 0.537795
268 1 0.172124 0.573335 0.560006
220 1 0.801815 0.547465 0.531217
453 1 0.725847 0.819428 0.582497
110 1 0.623796 0.921411 0.594384
380 1 0.643452 0.545021 0.400536
167 1 0.780689 0.821187 0.490432
3 1 0.87801 0.657278 0.450457
236 1 0.932742 0.682446 0.493056
90 1 0.400577 0.994053 0.580526
312 1 0.0942158 0.990052 0.598736
51 1 0.737789 0.508004 0.561408
298 1 0.96598 0.53445 0.442624
162 1 0.210467 0.670242 0.429886
413 1 0.247095 0.779387 0.434671
387 1 0.0759869 0.861131 0.465771
30 1 0.737866 0.901721 0.558452
228 1 0.544065 0.691582 0.499662
39 1 0.646695 0.676447 0.484436
382 1 0.593334 0.998296 0.423831
502 1 0.253915 0.550558 0.54708
79 1 0.541305 0.566565 0.54277
127 1 0.950421 0.827711 0.5345
323 1 0.790954 0.546415 0.446937
356 1 0.846015 0.823298 0.529014
205 1 0.660084 0.552652 0.49844
294 1 0.465802 0.723645 0.510995
131 1 0.561139 0.850657 0.57386
16 1 0.436133 0.585698 0.434606
308 1 0.751919 0.609377 0.42252
470 1 0.745564 0.904518 0.473361
383 1 0.228274 0.569289 0.444745
474 1 0.455528 0.666948 0.444626
252 1 0.980168 0.752045 0.541658
218 1 0.352042 0.932975 0.401772
496 1 0.145189 0.714874 0.570315
349 1 0.885492 0.55229 0.423627
9 1 0.098132 0.674858 0.50358
155 1 0.40963 0.829329 0.561385
64 1 0.331963 0.83931 0.536436
53 1 0.156227 0.958602 0.568528
357 1 0.991361 0.948676 0.598949
174 1 0.189044 0.811148 0.541409
398 1 0.27315 0.790738 0.5573
414 1 0.734041 0.661512 0.578586
310 1 0.623675 0.642272 0.409501
165 1 0.293065 0.591491 0.40708
446 1 0.594909 0.645628 0.773377
254 1 0.948476 0.751294 0.70535
122 1 0.898429 0.503881 0.648099
458 1 0.113511 0.611632 0.646865
304 1 0.122626 0.607629 0.728264
465 1 0.240942 0.807106 0.713182
17 1 0.0206378 0.865031 0.668579
186 1 0.468717 0.86782 0.712528
425 1 0.883191 0.673891 0.710381
374 1 0.51076 0.831624 0.677222
120 1 0.488503 0.575649 0.62934
36 1 0.0400285 0.736292 0.764854
115 1 0.0854029 0.759694 0.703847
443 1 0.76407 0.549931 0.762922
503 1 0.823302 0.885169 0.682665
337 1 0.480822 0.57991 0.721722
377 1 0.892484 0.795585 0.767055
130 1 0.475732 0.976005 0.758507
25 1 0.73539 0.585575 0.711763
360 1 0.790669 0.94881 0.618662
149 1 0.102724 0.847255 0.65518
318 1 0.581736 0.614489 0.631814
336 1 0.344754 0.510298 0.687835
200 1 0.152208 0.664167 0.788375
201 1 0.122705 0.547207 0.603765
97 1 0.838772 0.825548 0.626668
354 1 0.160906 0.896713 0.641097
96 1 0.521573 0.780293 0.618435
455 1 0.782864 0.691117 0.697038
202 1 0.562696 0.608122 0.716236
379 1 0.168593 0.813616 0.742898
484 1 0.896238 0.808765 0.683177
223 1 0.702488 0.666568 0.691807
206 1 0.455374 0.911095 0.792831
56 1 0.286683 0.716059 0.794652
28 1 0.81085 0.633985 0.648118
172 1 0.340279 0.831964 0.737869
111 1 0.206532 0.9559 0.688135
332 1 0.11785 0.694182 0.644021
109 1 0.715196 0.984986 0.61071
428 1 0.888285 0.604325 0.669267
32 1 0.786628 0.869448 0.770731
279 1 0.394681 0.868412 0.616435
278 1 0.655388 0.790506 0.603206
78 1 0.584005 0.723022 0.60958
475 1 0.0343166 0.500607 0.69568
141 1 0.311897 0.996711 0.671361
393 1 0.260854 0.513629 0.714474
143 1 0.607211 0.638878 0.848427
416 1 0.32295 0.810755 0.914292
256 1 0.779607 0.553818 0.895498
486 1 0.433868 0.513613 0.861397
331 1 0.702842 0.622531 0.958425
113 1 0.792472 0.61577 0.971164
48 1 0.301451 0.90171 0.837858
461 1 0.679222 0.51925 0.838541
412 1 0.0316545 0.753213 0.846457
216 1 0.469481 0.541003 0.987713
147 1 0.174282 0.764183 0.841817
479 1 0.5715 0.746559 0.954275
392 1 0.835857 0.531973 0.978526
501 1 0.646167 0.784865 0.812571
191 1 0.891733 0.637254 0.982092
207 1 0.747978 0.763832 0.948501
7 1 0.2607 0.60279 0.968805
57 1 0.646163 0.892819 0.951051
26 1 0.719501 0.723137 0.881522
471 1 0.00980238 0.85052 0.844741
280 1 0.482905 0.852878 0.850452
124 1 0.260095 0.664918 0.843538
468 1 0.0550659 0.558256 0.817591
275 1 0.939114 0.521863 0.832014
151 1 0.334725 0.825148 0.829796
431 1 0.0676094 0.591986 0.91163
178 1 0.49428 0.970707 0.944026
437 1 0.104151 0.74363 0.904442
212 1 0.829747 0.609745 0.876441
175 1 0.921058 0.790207 0.935778
117 1 0.626235 0.718519 0.877481
316 1 0.958785 0.602572 0.976447
208 1 0.535606 0.827199 0.926395
203 1 0.0490238 0.592903 0.987323
395 1 0.138535 0.96697 0.830382
12 1 0.795231 0.762653 0.811326
466 1 0.912291 0.597839 0.867838
329 1 0.212421 0.915563 0.817013
334 1 0.234407 0.798809 0.921769
404 1 0.914945 0.701579 0.941975
282 1 0.66165 0.57838 0.905232
326 1 0.961653 0.845761 0.9222
227 1 0.343249 0.961276 0.896398
146 1 0.381639 0.872474 0.946545
261 1 0.466868 0.584182 0.86957
69 1 0.561174 0.907202 0.931202
235 1 0.0586321 0.671816 0.850863
128 1 0.531439 0.594931 0.995803
423 1 0.379666 0.589869 0.984989
18 1 0.511886 0.580849 0.806457
434 1 0.112426 0.928879 0.999526
