ITEM: TIMESTEP
2000
ITEM: NUMBER OF ATOMS
512
ITEM: BOX BOUNDS pp pp pp
0.0000000000000000e+00 1.7235477520000000e+01
0.0000000000000000e+00 1.7235477520000000e+01
0.0000000000000000e+00 1.7235477520000000e+01
ITEM: ATOMS id type xs ys zs
306 1 0.0283236 0.0543154 0.0810024
145 1 0.0539928 0.0175802 0.13549
119 1 0.0363132 0.118913 0.0412938
142 1 0.423377 0.158513 0.15261
468 1 0.454334 0.0911522 0.122861
301 1 0.45278 0.0305117 0.0595079
218 1 0.568918 0.111606 0.0572124
58 1 0.534741 0.105747 0.130989
160 1 0.53027 0.0463502 0.0254243
192 1 0.756726 0.164285 0.113523
321 1 0.802557 0.131609 0.00503025
187 1 0.00722862 0.275063 0.0532407
400 1 0.0844844 0.263098 0.0573464
211 1 0.150741 0.304143 0.0738923
193 1 0.222703 0.261044 0.0574529
443 1 0.287407 0.260833 0.106568
497 1 0.303922 0.327655 0.159251
319 1 0.349286 0.202896 0.0934966
258 1 0.477467 0.200145 0.19593
427 1 0.410273 0.204857 0.0404081
490 1 0.504697 0.272185 0.193924
197 1 0.622498 0.171975 0.0162875
96 1 0.650617 0.253577 0.138727
196 1 0.572725 0.286866 0.139918
441 1 0.80788 0.188306 0.0585305
377 1 0.673754 0.185116 0.0905207
118 1 0.706053 0.306124 0.165446
17 1 0.948446 0.247724 0.108895
350 1 0.95091 0.253511 0.186337
85 1 0.887182 0.21826 0.0492643
392 1 0.092264 0.436268 0.072963
225 1 0.162974 0.498179 0.17839
365 1 0.0361166 0.430404 0.0251105
170 1 0.147092 0.383979 0.098503
40 1 0.188285 0.421929 0.15294
232 1 0.267647 0.404426 0.177259
151 1 0.462311 0.340535 0.175382
474 1 0.380774 0.357211 0.182964
410 1 0.467938 0.481578 0.193718
380 1 0.336114 0.438757 0.192452
407 1 0.391401 0.497888 0.199703
469 1 0.467897 0.464007 0.00479693
8 1 0.666054 0.373313 0.0038284
255 1 0.58141 0.380673 0.0394309
163 1 0.508229 0.40364 0.19533
158 1 0.565736 0.374876 0.130921
340 1 0.543873 0.450536 0.00301136
94 1 0.780332 0.334024 0.143161
61 1 0.689039 0.483346 0.0965068
479 1 0.671304 0.46015 0.00676792
101 1 0.669825 0.437041 0.161667
93 1 0.907231 0.412236 0.0962882
249 1 0.962688 0.392406 0.0364105
363 1 0.843218 0.366505 0.128792
309 1 0.90055 0.497214 0.091467
405 1 0.0366688 0.0782459 0.339036
281 1 0.225686 0.0823989 0.290014
435 1 0.248127 0.0380001 0.335865
70 1 0.538925 0.144729 0.206287
133 1 0.784062 0.159574 0.202654
481 1 0.860186 0.154617 0.236462
417 1 0.896501 0.0179524 0.259072
89 1 0.976006 0.123814 0.307469
366 1 0.919788 0.101404 0.255432
287 1 0.0763946 0.302673 0.364292
418 1 0.00220206 0.298715 0.245211
386 1 0.0493966 0.224642 0.379592
173 1 0.160782 0.306005 0.398919
71 1 0.515359 0.301785 0.393589
188 1 0.59428 0.175676 0.262514
503 1 0.612627 0.220616 0.329985
26 1 0.576185 0.246991 0.399357
341 1 0.667656 0.184279 0.296952
87 1 0.744364 0.179747 0.272323
5 1 0.812421 0.320938 0.331442
207 1 0.779408 0.245791 0.340688
320 1 0.88584 0.32151 0.347335
271 1 0.908008 0.222763 0.242425
333 1 0.943975 0.272837 0.305916
277 1 0.985735 0.203293 0.338959
86 1 0.0437505 0.350761 0.301992
109 1 0.0296392 0.441264 0.296204
393 1 0.240536 0.350115 0.3789
116 1 0.494156 0.387033 0.339739
352 1 0.57125 0.494172 0.286318
464 1 0.631634 0.391374 0.307671
266 1 0.544151 0.405363 0.272457
68 1 0.609569 0.394477 0.384238
342 1 0.711917 0.385978 0.288218
433 1 0.764893 0.382606 0.342256
22 1 0.721415 0.379027 0.200536
325 1 0.079155 0.100003 0.407606
421 1 0.00311673 0.00826557 0.555326
146 1 0.0818051 0.0298811 0.450178
37 1 0.497964 0.0980901 0.492214
213 1 0.451597 0.126342 0.545125
60 1 0.516428 0.021409 0.464424
129 1 0.552692 0.161292 0.513312
368 1 0.635532 0.0365649 0.561308
42 1 0.800455 0.138234 0.434083
257 1 0.701734 0.0514746 0.51676
171 1 0.736358 0.119726 0.483255
391 1 0.853445 0.0912309 0.418741
269 1 0.967976 0.0834393 0.562764
16 1 0.865097 0.0158101 0.417835
252 1 0.899624 0.0749195 0.590571
11 1 0.136337 0.204594 0.487398
307 1 0.0953401 0.177389 0.427287
431 1 0.178785 0.269424 0.469884
411 1 0.27871 0.327399 0.438593
41 1 0.221226 0.277772 0.537964
328 1 0.30126 0.308954 0.515096
67 1 0.393267 0.173272 0.574485
216 1 0.354191 0.321179 0.575392
293 1 0.407399 0.256941 0.576626
79 1 0.573267 0.194931 0.578229
164 1 0.629959 0.320267 0.422567
372 1 0.640588 0.233273 0.584745
322 1 0.601547 0.180635 0.450914
470 1 0.773861 0.210938 0.413209
243 1 0.684118 0.17316 0.44882
355 1 0.684123 0.318318 0.48209
34 1 0.676347 0.299448 0.564513
357 1 0.98878 0.166843 0.561645
396 1 0.930315 0.295781 0.559663
100 1 0.919725 0.21783 0.581838
506 1 0.132651 0.455275 0.537689
45 1 0.0770251 0.400208 0.556218
472 1 0.248243 0.490679 0.510529
19 1 0.213934 0.447481 0.566123
4 1 0.453145 0.417976 0.404947
420 1 0.479723 0.339537 0.450931
462 1 0.495556 0.347912 0.526045
14 1 0.375497 0.481416 0.558966
108 1 0.446158 0.491701 0.409708
209 1 0.583445 0.480333 0.422251
241 1 0.523175 0.484192 0.577324
13 1 0.500485 0.398206 0.591583
311 1 0.734095 0.382006 0.487838
507 1 0.817275 0.450123 0.583118
423 1 0.769298 0.405994 0.419205
139 1 0.757545 0.399932 0.56625
273 1 0.90607 0.360882 0.423153
302 1 0.959897 0.342697 0.48227
10 1 0.998266 0.412633 0.514709
91 1 0.846359 0.413651 0.450413
165 1 0.842619 0.472835 0.509663
480 1 0.105798 0.101635 0.75192
44 1 0.0271354 0.0701385 0.770836
48 1 0.16946 0.0552817 0.749467
205 1 0.322243 0.0970302 0.703924
482 1 0.242787 0.0973188 0.72614
491 1 0.459793 0.131286 0.671064
120 1 0.360424 0.0416629 0.754624
370 1 0.363133 0.132363 0.647556
312 1 0.553801 0.0307396 0.65263
177 1 0.665791 0.161291 0.736198
233 1 0.507214 0.06252 0.709653
74 1 0.635378 0.0539542 0.640652
231 1 0.776234 0.116101 0.676521
389 1 0.692339 0.101988 0.677982
425 1 0.8277 0.0798067 0.630056
190 1 0.878116 0.0852742 0.784726
24 1 0.840863 0.0115147 0.602262
314 1 0.951461 0.0993643 0.750882
64 1 0.0909239 0.330265 0.768038
494 1 0.118059 0.176899 0.715922
15 1 0.0475691 0.201761 0.619212
238 1 0.0199024 0.217641 0.70024
201 1 0.127401 0.208141 0.639828
483 1 0.198268 0.247625 0.62003
88 1 0.255082 0.240805 0.680865
130 1 0.309497 0.300922 0.704635
56 1 0.214879 0.184718 0.738852
336 1 0.441555 0.209826 0.721514
219 1 0.471529 0.260688 0.653626
80 1 0.357263 0.282512 0.774164
299 1 0.582282 0.198718 0.731026
488 1 0.534549 0.192702 0.65703
152 1 0.798605 0.199738 0.675158
373 1 0.696042 0.308438 0.74714
245 1 0.748196 0.237794 0.740488
110 1 0.945523 0.17995 0.717089
248 1 0.961492 0.280915 0.743123
498 1 0.897447 0.298945 0.695099
295 1 0.881734 0.217217 0.665642
121 1 0.0266727 0.432366 0.705824
140 1 0.114634 0.376801 0.703289
149 1 0.0209877 0.496155 0.759994
360 1 0.0749582 0.403967 0.637633
113 1 0.204086 0.418835 0.702525
354 1 0.252177 0.421125 0.630843
112 1 0.324728 0.366742 0.655684
477 1 0.235343 0.481771 0.786346
413 1 0.169193 0.482512 0.748187
438 1 0.477542 0.3495 0.657367
316 1 0.440232 0.374663 0.71881
147 1 0.349234 0.455014 0.627879
217 1 0.395692 0.373573 0.778609
6 1 0.655968 0.449716 0.748888
242 1 0.684429 0.381687 0.69635
446 1 0.707079 0.36012 0.617899
220 1 0.828346 0.489506 0.667535
467 1 0.947936 0.406355 0.670697
453 1 0.930046 0.335941 0.625522
489 1 0.901928 0.472834 0.68273
169 1 0.0449629 0.165654 0.97825
115 1 0.424431 0.135778 0.828798
347 1 0.418887 0.0247142 0.896725
39 1 0.417734 0.05394 0.807689
159 1 0.422087 0.110704 0.906207
131 1 0.555654 0.0186761 0.941133
415 1 0.610046 0.0229885 0.868634
30 1 0.751062 0.059115 0.870858
148 1 0.669716 0.0717866 0.842756
261 1 0.826598 0.0411568 0.829433
450 1 0.682143 0.1513 0.81482
178 1 0.786075 0.0828664 0.945829
222 1 0.0705135 0.323161 0.84381
296 1 0.0995374 0.202415 0.931694
172 1 0.110656 0.282192 0.901909
353 1 0.29296 0.26555 0.831862
346 1 0.246128 0.190251 0.832582
511 1 0.214326 0.205472 0.90512
157 1 0.185986 0.287002 0.910528
254 1 0.260464 0.32387 0.882043
504 1 0.2297 0.213746 0.997022
286 1 0.434106 0.177148 0.962919
117 1 0.452122 0.203171 0.804876
451 1 0.616824 0.221958 0.846317
43 1 0.544489 0.212813 0.802159
430 1 0.510371 0.185279 0.933361
276 1 0.648814 0.30681 0.823636
54 1 0.591557 0.206648 0.944287
23 1 0.758618 0.205342 0.830905
3 1 0.802286 0.250393 0.871602
280 1 0.982243 0.319185 0.818157
124 1 0.856967 0.29406 0.91349
77 1 0.962284 0.314608 0.994732
512 1 0.890231 0.262079 0.980886
49 1 0.259009 0.397718 0.902195
214 1 0.291883 0.446083 0.958011
114 1 0.297682 0.455683 0.837564
383 1 0.379185 0.443282 0.806323
247 1 0.617158 0.499291 0.969747
461 1 0.67294 0.438054 0.833318
315 1 0.683931 0.36376 0.87777
379 1 0.798376 0.377351 0.948982
371 1 0.719711 0.360368 0.943125
275 1 0.908497 0.344429 0.869899
445 1 0.834614 0.446337 0.909141
466 1 0.98043 0.483775 0.903018
327 1 0.918167 0.434425 0.892878
126 1 0.105066 0.502435 0.111123
493 1 0.0225941 0.582832 0.0128137
251 1 0.135289 0.621318 0.0718626
492 1 0.0579137 0.580344 0.0954162
298 1 0.00951439 0.590252 0.168712
132 1 0.295916 0.584752 0.0295703
55 1 0.216529 0.585085 0.0380355
331 1 0.361674 0.61694 0.0854884
81 1 0.412938 0.514543 0.0118961
57 1 0.42818 0.595178 0.0431579
390 1 0.356801 0.621252 0.175667
246 1 0.512967 0.659163 0.130544
212 1 0.612426 0.556145 0.152772
416 1 0.503254 0.628916 0.0551517
444 1 0.537066 0.578815 0.151002
95 1 0.794019 0.589109 0.128615
1 1 0.798364 0.642595 0.190455
179 1 0.738782 0.558541 0.0809867
107 1 0.707814 0.582811 0.00411514
78 1 0.929626 0.604981 0.155274
455 1 0.873262 0.560565 0.117574
282 1 0.901613 0.652797 0.00660929
168 1 0.11415 0.791508 0.117725
303 1 0.0961942 0.752111 0.0283075
313 1 0.0281048 0.801176 0.151128
499 1 0.16338 0.764785 0.177479
122 1 0.0120909 0.71728 0.0351931
134 1 0.290315 0.674691 0.19926
161 1 0.29643 0.777586 0.00222387
440 1 0.252592 0.741474 0.15012
359 1 0.276079 0.761939 0.0767378
290 1 0.558425 0.718894 0.163213
20 1 0.626561 0.755605 0.131996
274 1 0.623784 0.798018 0.0662838
183 1 0.67835 0.812246 0.00970557
426 1 0.793211 0.745557 0.0354645
485 1 0.971351 0.756289 0.0986739
83 1 0.91102 0.806521 0.107836
402 1 0.834069 0.821723 0.0722285
7 1 0.118688 0.852348 0.0510378
194 1 0.0839774 0.922491 0.0573424
262 1 0.112736 0.982624 0.171374
381 1 0.0281253 0.926466 0.00729206
294 1 0.189003 0.973912 0.149629
75 1 0.321386 0.918439 0.190595
304 1 0.391525 0.973444 0.0609277
385 1 0.386751 0.93342 0.13243
125 1 0.440955 0.885196 0.1506
332 1 0.497448 0.850591 0.116931
432 1 0.548614 0.840058 0.062964
288 1 0.757075 0.940158 0.121191
452 1 0.704331 0.941016 0.172418
326 1 0.811029 0.88302 0.106841
46 1 0.839224 0.953127 0.138227
289 1 0.0120251 0.593278 0.251063
378 1 0.158857 0.544082 0.242678
351 1 0.00856883 0.513751 0.294383
234 1 0.317396 0.596328 0.2933
272 1 0.313563 0.58076 0.376222
9 1 0.210538 0.556543 0.292984
297 1 0.225644 0.558642 0.380817
104 1 0.459505 0.590014 0.276097
279 1 0.490587 0.593032 0.353899
406 1 0.376413 0.574529 0.247845
28 1 0.587148 0.536528 0.360536
123 1 0.633304 0.600781 0.373099
339 1 0.516399 0.540924 0.228194
223 1 0.631572 0.506568 0.216909
33 1 0.669723 0.644237 0.303439
127 1 0.734716 0.654882 0.246583
362 1 0.882629 0.643989 0.210547
428 1 0.130861 0.7335 0.254094
361 1 0.0774668 0.716724 0.308066
53 1 0.0697148 0.74638 0.385933
476 1 0.0115814 0.677607 0.289398
18 1 0.0244291 0.820217 0.398786
330 1 0.252213 0.829971 0.343213
394 1 0.209719 0.704426 0.305939
404 1 0.278727 0.667308 0.279656
270 1 0.216322 0.763055 0.362943
92 1 0.485079 0.800904 0.290922
180 1 0.410633 0.814517 0.281596
229 1 0.600176 0.799162 0.202528
31 1 0.532068 0.765763 0.23815
167 1 0.519279 0.815822 0.374735
259 1 0.702255 0.794625 0.311252
305 1 0.702383 0.71479 0.290285
348 1 0.736127 0.818828 0.392179
198 1 0.965885 0.802444 0.346232
72 1 0.949665 0.730541 0.315024
204 1 0.897841 0.693239 0.273494
97 1 0.981749 0.826966 0.215064
166 1 0.116123 0.967618 0.258046
334 1 0.0734005 0.998826 0.317234
221 1 0.260223 0.964252 0.377309
76 1 0.226394 0.908352 0.335698
424 1 0.182416 0.920141 0.264735
264 1 0.238885 0.94686 0.201212
265 1 0.360885 0.868284 0.236007
408 1 0.334199 0.83494 0.311857
285 1 0.664389 0.84154 0.24747
324 1 0.645711 0.912993 0.208289
454 1 0.886113 0.965254 0.351871
62 1 0.906654 0.923983 0.28353
186 1 0.956013 0.85855 0.278671
283 1 0.867765 0.971582 0.211159
256 1 0.0208653 0.615773 0.419994
484 1 0.045331 0.548613 0.457643
27 1 0.123318 0.515257 0.476527
63 1 0.193688 0.536104 0.449432
235 1 0.332172 0.500381 0.496416
59 1 0.368962 0.522659 0.421173
388 1 0.429749 0.604788 0.488932
38 1 0.435962 0.613079 0.567412
508 1 0.441862 0.531136 0.578734
230 1 0.465408 0.616178 0.425531
447 1 0.572475 0.505291 0.500821
224 1 0.590185 0.586252 0.510331
317 1 0.621121 0.632606 0.448902
369 1 0.601103 0.590183 0.581899
509 1 0.816066 0.642894 0.48537
162 1 0.792854 0.63837 0.561238
191 1 0.901749 0.613109 0.488008
356 1 0.90127 0.5337 0.495431
52 1 0.985882 0.501605 0.49599
510 1 0.0159537 0.808114 0.54613
240 1 0.161085 0.812423 0.492333
505 1 0.0938219 0.717861 0.583438
398 1 0.0270942 0.724217 0.539364
419 1 0.156785 0.770802 0.421662
184 1 0.0317753 0.69303 0.443261
65 1 0.208569 0.803598 0.558567
50 1 0.28995 0.827234 0.560154
463 1 0.49567 0.782615 0.499661
236 1 0.47937 0.747515 0.574123
367 1 0.422792 0.689131 0.587139
329 1 0.612207 0.718403 0.464972
144 1 0.540518 0.756597 0.43696
21 1 0.675106 0.756702 0.502475
268 1 0.815626 0.723484 0.474262
318 1 0.747597 0.768375 0.457712
155 1 0.888171 0.751724 0.507579
128 1 0.879626 0.829984 0.558879
141 1 0.945032 0.692836 0.516104
260 1 0.0475993 0.89777 0.431365
459 1 0.133829 0.928023 0.560134
199 1 0.0837523 0.864044 0.510794
300 1 0.0900204 0.997883 0.536761
267 1 0.0661909 0.971937 0.400129
210 1 0.217674 0.944805 0.537451
189 1 0.286349 0.905048 0.523847
473 1 0.261085 0.960179 0.468015
308 1 0.514109 0.865599 0.491514
460 1 0.592383 0.975985 0.512869
448 1 0.516913 0.89018 0.412047
239 1 0.627347 0.854989 0.581615
414 1 0.566557 0.91718 0.575643
105 1 0.520826 0.966748 0.40769
496 1 0.780496 0.882242 0.410493
422 1 0.677629 0.973216 0.48216
501 1 0.669317 0.835736 0.516847
2 1 0.706946 0.899972 0.468888
51 1 0.840785 0.924758 0.404796
253 1 0.952418 0.942386 0.566715
502 1 0.954509 0.857812 0.543788
344 1 0.878241 0.949745 0.588757
174 1 0.120874 0.646034 0.632847
458 1 0.109594 0.582513 0.669338
436 1 0.0970017 0.545723 0.740023
102 1 0.571094 0.646457 0.734073
397 1 0.62169 0.516139 0.714669
399 1 0.620069 0.588138 0.758452
84 1 0.589708 0.533612 0.637636
384 1 0.784349 0.609872 0.634172
323 1 0.821867 0.570408 0.68731
284 1 0.923796 0.665155 0.758982
349 1 0.889393 0.595824 0.733441
345 1 0.945865 0.532992 0.735676
103 1 0.072203 0.765215 0.764568
227 1 0.0331227 0.825383 0.727497
337 1 0.156146 0.770486 0.614089
358 1 0.175602 0.806558 0.77252
176 1 0.196181 0.691471 0.624993
495 1 0.268772 0.678224 0.639295
292 1 0.335418 0.798086 0.621878
395 1 0.462825 0.813462 0.777514
200 1 0.396957 0.803987 0.739821
228 1 0.341247 0.71374 0.616788
32 1 0.533321 0.746702 0.638316
449 1 0.526783 0.690152 0.695943
250 1 0.60109 0.818101 0.794487
36 1 0.592491 0.815358 0.651135
226 1 0.940082 0.736922 0.766029
29 1 0.948139 0.815978 0.737495
206 1 0.134823 0.905715 0.639443
442 1 0.0870728 0.896589 0.706129
182 1 0.111816 0.932322 0.789499
409 1 0.0326805 0.978747 0.797274
338 1 0.246124 0.857337 0.731912
310 1 0.252622 0.943618 0.744398
195 1 0.178697 0.97614 0.77764
237 1 0.183028 0.836261 0.681541
175 1 0.393119 0.906881 0.709481
69 1 0.474476 0.919217 0.708119
12 1 0.335061 0.836491 0.69952
478 1 0.337133 0.963023 0.735349
73 1 0.630353 0.840696 0.721406
215 1 0.505373 0.985111 0.76165
25 1 0.526434 0.954007 0.636314
291 1 0.612989 0.897015 0.772802
278 1 0.873487 0.857765 0.704302
456 1 0.847856 0.873287 0.618889
429 1 0.921297 0.895451 0.772825
99 1 0.104706 0.624808 0.816592
500 1 0.0769181 0.578042 0.869335
434 1 0.159824 0.589467 0.988259
475 1 0.0846167 0.5737 0.950179
111 1 0.0201961 0.514799 0.847877
376 1 0.0204877 0.506227 0.977524
138 1 0.327235 0.51024 0.993372
136 1 0.452825 0.665807 0.867442
90 1 0.403416 0.517631 0.832465
343 1 0.420784 0.587242 0.843568
181 1 0.624027 0.579806 0.99055
375 1 0.662947 0.592368 0.825213
335 1 0.563569 0.629272 0.978234
153 1 0.738515 0.510547 0.97284
135 1 0.760265 0.64194 0.947634
457 1 0.779978 0.501838 0.900347
465 1 0.711451 0.514017 0.852107
154 1 0.974049 0.655549 0.999034
387 1 0.130389 0.809593 0.978775
35 1 0.118397 0.703319 0.803973
98 1 0.268708 0.698226 0.841774
403 1 0.200493 0.721729 0.800049
364 1 0.322959 0.735888 0.883106
82 1 0.33454 0.793162 0.93308
486 1 0.653264 0.680612 0.866582
203 1 0.524108 0.788102 0.813379
150 1 0.577186 0.669738 0.908633
401 1 0.515619 0.71035 0.870648
156 1 0.730119 0.753416 0.981091
374 1 0.719948 0.699423 0.915182
143 1 0.830008 0.683622 0.987659
66 1 0.153131 0.834901 0.905964
263 1 0.153959 0.856936 0.836621
437 1 0.395775 0.920808 0.989396
47 1 0.364405 0.862891 0.946319
106 1 0.442229 0.962074 0.937748
412 1 0.65867 0.888467 0.985969
137 1 0.570283 0.899563 0.991326
487 1 0.519137 0.944883 0.941038
185 1 0.585423 0.965414 0.803694
382 1 0.704843 0.944262 0.94839
202 1 0.776246 0.989798 0.935497
439 1 0.836132 0.974045 0.881714
471 1 0.960644 0.949556 0.821421
208 1 0.921117 0.97482 0.885027
244 1 0.972691 0.939413 0.953323
