ITEM: TIMESTEP
1400
ITEM: NUMBER OF ATOMS
512
ITEM: BOX BOUNDS pp pp pp
0.0000000000000000e+00 1.7235477520000000e+01
0.0000000000000000e+00 1.7235477520000000e+01
0.0000000000000000e+00 1.7235477520000000e+01
ITEM: ATOMS id type xs ys zs
321 1 0.852734 0.0780981 0.0221461
187 1 0.100439 0.199643 0.0874438
94 1 0.674699 0.419728 0.0340757
350 1 0.0255601 0.0479129 0.163015
23 1 0.816411 0.0261645 0.0950543
151 1 0.330253 0.267859 0.0482238
93 1 0.989111 0.489425 0.0385493
77 1 0.90982 0.308117 0.160844
22 1 0.692874 0.36805 0.152294
319 1 0.281767 0.13014 0.0736895
249 1 0.970511 0.466141 0.120458
392 1 0.0400287 0.410469 0.115457
3 1 0.770987 0.0842979 0.121749
193 1 0.0276235 0.164676 0.0519437
192 1 0.821413 0.142422 0.147479
8 1 0.593897 0.445074 0.0281583
490 1 0.414294 0.247999 0.0708504
197 1 0.587953 0.0777764 0.0380139
96 1 0.580628 0.259132 0.161646
325 1 0.0122628 0.0380927 0.0512741
334 1 0.0896553 0.104442 0.0976427
512 1 0.850429 0.257923 0.0160896
407 1 0.26729 0.357312 0.0579457
479 1 0.563343 0.412627 0.0996735
353 1 0.197689 0.320511 0.110786
118 1 0.633316 0.381745 0.0998899
145 1 0.0884612 0.0416834 0.0365788
17 1 0.857892 0.172963 0.0206673
54 1 0.472954 0.183719 0.05631
133 1 0.698346 0.136519 0.129176
196 1 0.535736 0.178976 0.121482
309 1 0.857312 0.369436 0.199631
61 1 0.746064 0.482411 0.0189181
251 1 0.121069 0.425447 0.11476
365 1 0.960249 0.356055 0.119922
255 1 0.328124 0.382996 0.138254
258 1 0.408306 0.113369 0.198373
87 1 0.911002 0.300664 0.0643969
286 1 0.182784 0.244648 0.116521
70 1 0.423176 0.201934 0.167191
142 1 0.423684 0.0771594 0.14035
363 1 0.798486 0.411188 0.14606
166 1 0.270081 0.053911 0.0784799
339 1 0.494655 0.436914 0.156272
427 1 0.259453 0.207349 0.088039
371 1 0.788552 0.422014 0.0688513
306 1 0.228674 0.00855364 0.0100929
377 1 0.628077 0.14278 0.105885
163 1 0.419804 0.471625 0.175621
214 1 0.153243 0.425545 0.027641
301 1 0.420075 0.096823 0.0567455
410 1 0.258195 0.408539 0.187463
58 1 0.640557 0.00876955 0.0339243
424 1 0.237798 0.0294004 0.141725
444 1 0.567073 0.416848 0.194217
474 1 0.232658 0.382788 0.000179614
468 1 0.343702 0.13351 0.0111522
158 1 0.54798 0.32511 0.216775
71 1 0.375506 0.321574 0.377174
272 1 0.262162 0.464642 0.309885
78 1 0.934155 0.374437 0.291842
435 1 0.370711 0.117995 0.323905
298 1 0.989589 0.426269 0.325954
455 1 0.870972 0.408455 0.262132
418 1 0.00133541 0.327289 0.368848
108 1 0.335436 0.422859 0.328735
341 1 0.717468 0.225643 0.214168
188 1 0.707286 0.142764 0.21879
400 1 0.138383 0.321386 0.285077
381 1 0.114113 0.0476667 0.27796
417 1 0.0193122 0.136261 0.31463
391 1 0.855941 0.0780585 0.328799
229 1 0.661789 0.0507275 0.223438
423 1 0.836966 0.277493 0.351825
42 1 0.704484 0.108105 0.354652
171 1 0.642051 0.154214 0.373792
333 1 0.902776 0.306027 0.362138
37 1 0.489262 0.0341644 0.299939
223 1 0.616317 0.424542 0.286256
405 1 0.0614834 0.292377 0.322266
464 1 0.472154 0.234853 0.238983
271 1 0.962758 0.129048 0.227173
503 1 0.530672 0.113909 0.28348
116 1 0.40684 0.330044 0.303073
266 1 0.421734 0.298973 0.235721
26 1 0.534924 0.192826 0.265403
4 1 0.406365 0.413957 0.27719
297 1 0.104 0.459864 0.358939
221 1 0.414082 0.0741247 0.269335
322 1 0.575639 0.12513 0.372958
273 1 0.76134 0.302331 0.367945
481 1 0.870904 0.156403 0.209823
68 1 0.484336 0.424572 0.343337
164 1 0.615007 0.21189 0.33105
497 1 0.224166 0.328914 0.305148
380 1 0.2223 0.460058 0.235199
209 1 0.573509 0.392887 0.365264
207 1 0.851571 0.138298 0.290438
366 1 0.0601841 0.206016 0.329165
470 1 0.730903 0.0651764 0.269313
232 1 0.19051 0.409306 0.354949
342 1 0.69433 0.353811 0.332707
352 1 0.693003 0.458537 0.33904
244 1 0.0620464 0.103363 0.27294
433 1 0.683093 0.275505 0.295671
79 1 0.507692 0.0647527 0.375245
28 1 0.514159 0.492037 0.398085
492 1 0.976116 0.492925 0.274282
281 1 0.32508 0.0833636 0.39043
211 1 0.201852 0.29815 0.230465
101 1 0.67858 0.295886 0.203954
386 1 0.896473 0.190575 0.463348
257 1 0.887936 0.0593 0.409754
302 1 0.845847 0.474361 0.491369
11 1 0.0441109 0.156336 0.474513
67 1 0.433212 0.178487 0.458071
165 1 0.902699 0.433822 0.495995
86 1 0.0187203 0.300809 0.462369
91 1 0.880713 0.283383 0.57897
307 1 0.292712 0.174518 0.449119
438 1 0.490347 0.24352 0.44854
24 1 0.902928 0.278672 0.476925
213 1 0.375314 0.23078 0.418407
484 1 0.968584 0.470309 0.530547
243 1 0.756357 0.231203 0.48766
13 1 0.472472 0.324086 0.436282
201 1 0.0670481 0.396834 0.591418
235 1 0.257686 0.281893 0.541621
2 1 0.829066 0.00995499 0.546772
507 1 0.707549 0.498587 0.546795
320 1 0.847976 0.145576 0.431822
420 1 0.408401 0.374598 0.415975
109 1 0.0699169 0.40791 0.454536
5 1 0.748413 0.15921 0.413829
355 1 0.573866 0.2915 0.588847
411 1 0.222263 0.203728 0.486118
267 1 0.164987 0.0720844 0.511132
89 1 0.0802926 0.193669 0.532831
491 1 0.471553 0.250065 0.567359
219 1 0.488705 0.174883 0.582293
277 1 0.995506 0.229231 0.486947
462 1 0.363889 0.390918 0.499718
210 1 0.230409 0.0190971 0.517815
129 1 0.475947 0.0550184 0.461476
241 1 0.389903 0.471588 0.51348
328 1 0.454168 0.122136 0.517388
287 1 0.092933 0.350606 0.517133
231 1 0.682545 0.250866 0.523117
389 1 0.664006 0.319771 0.564008
323 1 0.685827 0.40759 0.518184
372 1 0.566649 0.342462 0.419586
14 1 0.350094 0.292589 0.500186
189 1 0.137591 0.103018 0.433887
34 1 0.616758 0.420481 0.458103
360 1 0.977737 0.425726 0.584053
15 1 0.989001 0.0509308 0.535547
351 1 0.0350885 0.47448 0.47669
260 1 0.0682218 0.0737713 0.458973
473 1 0.333812 0.0146867 0.426705
100 1 0.973773 0.257316 0.670496
494 1 0.239413 0.376792 0.783357
220 1 0.691186 0.486447 0.68669
190 1 0.0492187 0.28908 0.750393
293 1 0.347311 0.259312 0.7519
114 1 0.313985 0.446257 0.767918
345 1 0.00868197 0.37266 0.754587
140 1 0.0948027 0.266115 0.693866
173 1 0.226393 0.331515 0.611762
450 1 0.692166 0.384078 0.676378
80 1 0.531217 0.454317 0.665299
478 1 0.249999 0.0195789 0.63604
41 1 0.380208 0.204192 0.679731
477 1 0.152768 0.493398 0.753393
216 1 0.247041 0.158082 0.624239
43 1 0.486138 0.21865 0.742614
139 1 0.937649 0.350285 0.698952
453 1 0.770662 0.265107 0.704782
357 1 0.240393 0.0962848 0.681803
177 1 0.706575 0.343505 0.615045
88 1 0.28149 0.366559 0.659813
248 1 0.00132822 0.0827289 0.749979
498 1 0.834207 0.24236 0.704763
300 1 0.0613493 0.0428332 0.705064
130 1 0.415099 0.403671 0.643223
64 1 0.348366 0.367615 0.617331
295 1 0.885023 0.191681 0.733339
254 1 0.166609 0.414121 0.786101
336 1 0.477776 0.176562 0.673839
483 1 0.127167 0.342456 0.640218
312 1 0.447928 0.0210446 0.682211
383 1 0.415696 0.461478 0.766757
425 1 0.892672 0.230175 0.618715
233 1 0.553276 0.179142 0.693612
56 1 0.274072 0.289035 0.741867
146 1 0.138933 0.0845208 0.678762
269 1 0.0330312 0.00191516 0.641275
349 1 0.952114 0.419037 0.66075
370 1 0.324267 0.172888 0.635124
456 1 0.795271 0.0345784 0.613911
393 1 0.223593 0.240107 0.681272
245 1 0.70168 0.299828 0.744282
110 1 0.994065 0.188055 0.746644
373 1 0.630519 0.283121 0.784702
74 1 0.596813 0.145998 0.750509
431 1 0.150659 0.198373 0.724451
112 1 0.534111 0.335656 0.624426
396 1 0.954104 0.173741 0.651903
314 1 0.126184 0.135054 0.757662
242 1 0.759564 0.488802 0.771918
284 1 0.888583 0.486334 0.774145
215 1 0.517896 0.0215997 0.738376
138 1 0.440656 0.281591 0.754652
252 1 0.970692 0.0745233 0.612548
90 1 0.480366 0.488015 0.764618
299 1 0.514232 0.138963 0.805365
170 1 0.114106 0.376972 0.966286
275 1 0.0120634 0.357587 0.873833
49 1 0.370314 0.219257 0.999223
48 1 0.205589 0.113788 0.913737
202 1 0.716411 0.0649461 0.863154
115 1 0.396498 0.0168227 0.853619
467 1 0.938486 0.462456 0.827211
296 1 0.0527236 0.252351 0.956494
208 1 0.961579 0.0467156 0.800838
218 1 0.517001 0.0351919 0.989493
482 1 0.322148 0.00249871 0.871805
119 1 0.935468 0.228074 0.81389
469 1 0.37673 0.464383 0.884018
346 1 0.222324 0.32629 0.853241
504 1 0.982493 0.199694 0.978249
480 1 0.172574 0.157932 0.823643
159 1 0.416315 0.215824 0.889889
511 1 0.263077 0.180402 0.851778
238 1 0.312859 0.406996 0.838714
157 1 0.186921 0.368487 0.924884
263 1 0.0461658 0.0249142 0.940989
131 1 0.471738 0.00283202 0.858314
379 1 0.769145 0.335277 0.920453
442 1 0.220547 0.0532477 0.949261
439 1 0.896779 0.0592178 0.852084
261 1 0.964336 0.177542 0.880033
81 1 0.650108 0.394558 0.873889
430 1 0.465884 0.283737 0.945278
443 1 0.0303456 0.391239 0.959325
276 1 0.596742 0.307263 0.933004
40 1 0.0190285 0.314102 0.94044
121 1 0.977729 0.302269 0.805234
327 1 0.97632 0.434077 0.878596
340 1 0.598131 0.466527 0.942359
415 1 0.533498 0.0601732 0.865467
343 1 0.414281 0.454527 0.95342
172 1 0.36363 0.169103 0.925878
182 1 0.126695 0.0359711 0.914738
117 1 0.386768 0.251553 0.827521
217 1 0.521586 0.489359 0.850465
124 1 0.825232 0.310477 0.965876
403 1 0.965391 0.0275155 0.953704
44 1 0.0678041 0.181286 0.875413
451 1 0.527672 0.311319 0.945478
85 1 0.906592 0.158128 0.967626
152 1 0.82372 0.0466145 0.826603
466 1 0.988657 0.462426 0.959304
160 1 0.450345 0.0599444 0.993572
315 1 0.672781 0.299781 0.900253
445 1 0.749813 0.403237 0.886676
153 1 0.785928 0.480843 0.909926
382 1 0.620619 0.0245912 0.833917
30 1 0.878967 0.0171634 0.961281
446 1 0.699191 0.431616 0.800019
280 1 0.655836 0.109388 0.80164
324 1 0.676866 0.989552 0.176147
376 1 0.0511803 0.547439 0.0301226
7 1 0.0397868 0.882572 0.118561
331 1 0.450472 0.747665 0.0714835
181 1 0.5155 0.603834 0.124057
75 1 0.233322 0.87183 0.129012
402 1 0.741238 0.651141 0.0152122
378 1 0.166779 0.608885 0.0143766
247 1 0.474157 0.593857 0.0431881
264 1 0.274039 0.932757 0.156015
179 1 0.791196 0.597684 0.00703026
288 1 0.73427 0.926663 0.128718
390 1 0.39283 0.60427 0.00115005
385 1 0.507899 0.866982 0.167355
313 1 0.105489 0.72928 0.139892
262 1 0.147922 0.846992 0.165835
1 1 0.768066 0.66255 0.18767
95 1 0.689815 0.632761 0.16351
134 1 0.313811 0.706387 0.133973
125 1 0.455658 0.814023 0.128795
440 1 0.277862 0.676097 0.0813113
98 1 0.174593 0.963885 0.0817982
452 1 0.675968 0.973164 0.0843961
107 1 0.591208 0.645312 0.0777275
375 1 0.554162 0.619323 0.0142767
47 1 0.346422 0.941444 0.138659
186 1 0.0778457 0.82985 0.157485
265 1 0.426742 0.966313 0.127334
326 1 0.921012 0.81919 0.140775
161 1 0.390989 0.882015 0.0893193
283 1 0.801055 0.935717 0.108153
46 1 0.875124 0.839913 0.199998
83 1 0.930339 0.763559 0.09374
434 1 0.227067 0.556465 0.0622087
485 1 0.948831 0.696392 0.0596732
20 1 0.597254 0.67412 0.177857
294 1 0.0765745 0.916786 0.0649028
475 1 0.980691 0.651957 0.00352647
359 1 0.274372 0.721969 0.0127417
168 1 0.176322 0.71776 0.175143
441 1 0.879117 0.925984 0.170177
270 1 0.263871 0.80344 0.193015
290 1 0.661491 0.788847 0.185971
225 1 0.180758 0.50341 0.0965633
246 1 0.585601 0.752484 0.199115
437 1 0.469026 0.856382 0.00603691
454 1 0.878892 0.990673 0.307818
198 1 0.0474621 0.725444 0.28738
212 1 0.684747 0.50697 0.257518
62 1 0.919544 0.911649 0.234855
9 1 0.276428 0.645827 0.267126
72 1 0.980981 0.677499 0.275955
409 1 0.868574 0.98855 0.222749
60 1 0.477857 0.923484 0.33234
406 1 0.456058 0.589417 0.239519
180 1 0.66216 0.863748 0.229114
426 1 0.638464 0.634392 0.237203
428 1 0.160595 0.677103 0.379229
31 1 0.701573 0.890624 0.288186
104 1 0.52418 0.575547 0.202605
394 1 0.282306 0.833884 0.290593
33 1 0.597552 0.569782 0.258869
194 1 0.138302 0.992061 0.298937
204 1 0.8987 0.689864 0.27643
361 1 0.198659 0.696007 0.271299
330 1 0.29682 0.844787 0.354936
488 1 0.685981 0.558657 0.315591
292 1 0.441176 0.731354 0.393455
50 1 0.369958 0.734162 0.380192
408 1 0.553208 0.821992 0.231034
18 1 0.081579 0.714975 0.382301
388 1 0.362086 0.582353 0.375675
289 1 0.0125113 0.57171 0.263167
362 1 0.82123 0.669287 0.243377
404 1 0.327716 0.657762 0.206425
126 1 0.0876403 0.578105 0.236297
123 1 0.594846 0.575421 0.361803
476 1 0.0837099 0.743999 0.226722
127 1 0.870962 0.762361 0.326545
305 1 0.816362 0.81679 0.362037
16 1 0.803119 0.968175 0.378818
317 1 0.62047 0.676716 0.395309
59 1 0.285612 0.559248 0.321747
234 1 0.408201 0.641579 0.209744
92 1 0.533996 0.817342 0.306975
279 1 0.451126 0.548314 0.35707
230 1 0.391077 0.659716 0.373084
167 1 0.487763 0.793234 0.369318
285 1 0.740775 0.908582 0.353596
256 1 0.982063 0.658495 0.483536
76 1 0.296353 0.874291 0.429156
447 1 0.533724 0.523062 0.545694
21 1 0.741645 0.744019 0.501451
27 1 0.0657413 0.544264 0.484418
463 1 0.700232 0.680772 0.488129
506 1 0.198966 0.559937 0.514024
510 1 0.0794004 0.712772 0.517185
65 1 0.265025 0.963273 0.574494
240 1 0.360544 0.965792 0.597453
224 1 0.49886 0.650846 0.498615
460 1 0.515298 0.876219 0.532217
338 1 0.405563 0.914456 0.557279
414 1 0.601867 0.897201 0.54812
105 1 0.447597 0.912339 0.419531
199 1 0.310143 0.94832 0.452486
176 1 0.319471 0.787411 0.551945
367 1 0.395385 0.799697 0.568014
496 1 0.867465 0.940409 0.512743
268 1 0.860313 0.856289 0.541656
499 1 0.156634 0.823492 0.409687
398 1 0.128968 0.678549 0.586845
369 1 0.5423 0.603758 0.541471
329 1 0.468855 0.648879 0.420601
128 1 0.886517 0.783309 0.577006
368 1 0.677922 0.919074 0.512528
308 1 0.588992 0.852131 0.453706
228 1 0.375315 0.594339 0.533624
155 1 0.970687 0.77336 0.593054
448 1 0.49146 0.84795 0.432154
318 1 0.77126 0.813857 0.540621
337 1 0.395646 0.716927 0.595371
259 1 0.756361 0.867164 0.417957
97 1 0.090973 0.847661 0.403807
63 1 0.102709 0.533187 0.416676
495 1 0.20418 0.767463 0.438646
52 1 0.922193 0.616767 0.47873
348 1 0.785369 0.885563 0.510089
419 1 0.251676 0.803413 0.488305
12 1 0.44874 0.860496 0.594921
19 1 0.256476 0.540612 0.475183
501 1 0.731107 0.720743 0.578844
311 1 0.785417 0.513334 0.523089
184 1 0.0229397 0.708702 0.440433
422 1 0.745492 0.939999 0.565447
53 1 0.164118 0.696416 0.486443
25 1 0.4648 0.981127 0.491665
38 1 0.448749 0.67483 0.567272
356 1 0.873464 0.598508 0.558696
144 1 0.612901 0.732277 0.440187
502 1 0.0542102 0.800825 0.531072
51 1 0.858019 0.98591 0.436887
253 1 0.088439 0.86328 0.585331
508 1 0.452163 0.509523 0.520041
472 1 0.297905 0.559592 0.422151
354 1 0.352978 0.589813 0.605261
358 1 0.0144848 0.772241 0.717713
509 1 0.821647 0.721513 0.612261
162 1 0.93943 0.513446 0.694293
303 1 0.917269 0.783007 0.72758
239 1 0.730608 0.635223 0.624022
45 1 0.123804 0.53993 0.632046
397 1 0.652953 0.652084 0.649293
310 1 0.42309 0.897338 0.694015
278 1 0.823289 0.982609 0.686304
191 1 0.86747 0.64463 0.661023
195 1 0.366475 0.804964 0.687602
102 1 0.534917 0.524287 0.659564
69 1 0.495283 0.936867 0.712839
449 1 0.481004 0.591135 0.698383
73 1 0.560269 0.811825 0.737498
10 1 0.18108 0.609737 0.606945
399 1 0.580891 0.700068 0.691913
226 1 0.968955 0.824237 0.660629
120 1 0.273771 0.9809 0.704106
505 1 0.0911852 0.703852 0.667243
113 1 0.0132998 0.539298 0.671427
500 1 0.89903 0.862207 0.787417
384 1 0.883389 0.565158 0.625205
413 1 0.216579 0.560115 0.764251
174 1 0.115913 0.66552 0.72973
205 1 0.369379 0.980953 0.689225
250 1 0.544311 0.768465 0.685554
29 1 0.933516 0.896398 0.707255
84 1 0.714465 0.504193 0.624817
200 1 0.357546 0.763216 0.751486
32 1 0.76722 0.563832 0.65198
316 1 0.296323 0.52347 0.731209
387 1 0.882712 0.705124 0.766059
141 1 0.0160919 0.725679 0.646025
459 1 0.0978356 0.996154 0.765494
344 1 0.892266 0.958387 0.671877
458 1 0.170583 0.613266 0.709639
36 1 0.711297 0.825472 0.794883
236 1 0.514199 0.665422 0.722527
457 1 0.781033 0.578328 0.74466
291 1 0.567633 0.902047 0.746481
421 1 0.0371335 0.927109 0.604661
147 1 0.311028 0.562373 0.654984
489 1 0.0748957 0.518423 0.741084
471 1 0.992771 0.893441 0.781031
412 1 0.696468 0.778776 0.750383
185 1 0.591628 0.974826 0.772404
374 1 0.704246 0.606253 0.773183
429 1 0.850207 0.977807 0.76961
156 1 0.687809 0.686248 0.706867
35 1 0.0334617 0.784682 0.797208
122 1 0.919498 0.649156 0.795994
175 1 0.279792 0.96501 0.78607
103 1 0.955803 0.806515 0.796537
227 1 0.0383337 0.962449 0.797196
274 1 0.62435 0.849297 0.9233
461 1 0.563597 0.654244 0.825379
99 1 0.142778 0.690699 0.802966
137 1 0.691614 0.970737 0.853702
493 1 0.085074 0.595393 0.991479
332 1 0.574162 0.762635 0.939183
149 1 0.0932356 0.57226 0.91628
401 1 0.302891 0.595528 0.804506
132 1 0.967683 0.592928 0.913247
282 1 0.78249 0.689098 0.949028
135 1 0.816315 0.522821 0.810038
55 1 0.226769 0.646109 0.964762
206 1 0.199344 0.941202 0.814921
487 1 0.688543 0.877694 0.9254
148 1 0.868702 0.894826 0.911967
39 1 0.319427 0.874935 0.829089
82 1 0.266163 0.693191 0.932056
486 1 0.675533 0.576472 0.847814
106 1 0.69901 0.8364 0.990329
66 1 0.855879 0.909426 0.829994
347 1 0.374565 0.828062 0.845182
6 1 0.60853 0.598322 0.888167
169 1 0.260304 0.988806 0.930944
436 1 0.115593 0.626348 0.841274
154 1 0.805666 0.641762 0.888992
203 1 0.325031 0.657558 0.838172
150 1 0.396069 0.577868 0.927036
395 1 0.350557 0.72999 0.822187
364 1 0.391283 0.779194 0.910649
183 1 0.663075 0.905335 0.803962
237 1 0.130499 0.958133 0.864526
432 1 0.582176 0.733374 0.869749
222 1 0.0681005 0.548867 0.813804
57 1 0.419879 0.796774 0.980518
465 1 0.53794 0.520045 0.911614
178 1 0.841949 0.94492 0.951672
111 1 0.917238 0.612433 0.863091
143 1 0.745213 0.591423 0.880266
304 1 0.53592 0.859005 0.973202
136 1 0.37445 0.549776 0.85333
416 1 0.423201 0.515716 0.985547
335 1 0.497502 0.658922 0.808489
