ITEM: TIMESTEP
1000
ITEM: NUMBER OF ATOMS
512
ITEM: BOX BOUNDS pp pp pp
0.0000000000000000e+00 1.7235477520000000e+01
0.0000000000000000e+00 1.7235477520000000e+01
0.0000000000000000e+00 1.7235477520000000e+01
ITEM: ATOMS id type xs ys zs
265 1 0.166351 0.137095 0.033914
116 1 0.149583 0.103516 0.167917
47 1 0.127945 0.0905725 0.107583
366 1 0.105424 0.0262037 0.138505
161 1 0.305625 0.0835243 0.0945758
264 1 0.3259 0.0878199 0.164183
194 1 0.275779 0.0260375 0.11807
58 1 0.453191 0.0164326 0.0177503
468 1 0.378772 0.164363 0.0587578
164 1 0.448284 0.147589 0.124862
487 1 0.61224 0.0500831 0.0869183
325 1 0.505781 0.0895347 0.141213
341 1 0.606474 0.0907757 0.147831
193 1 0.682085 0.116745 0.0343683
192 1 0.789772 0.154125 0.128378
133 1 0.746326 0.156637 0.0147824
106 1 0.724001 0.119783 0.140962
283 1 0.908403 0.0512418 0.184768
405 1 0.918116 0.139229 0.148695
299 1 0.272662 0.25417 0.0608194
407 1 0.22235 0.188426 0.0881562
435 1 0.422852 0.202287 0.186405
158 1 0.403897 0.311569 0.16982
490 1 0.359653 0.242288 0.0560992
23 1 0.727018 0.308541 0.100372
445 1 0.729702 0.324199 0.0114677
188 1 0.789935 0.222724 0.0822259
333 1 0.719171 0.28196 0.19461
85 1 0.870153 0.190473 0.147641
266 1 0.837554 0.261354 0.0377158
504 1 0.881134 0.259004 0.112815
440 1 0.0752484 0.489504 0.0521096
467 1 0.151147 0.469632 0.0105476
251 1 0.0101343 0.441289 0.0985612
493 1 0.0645313 0.422516 0.148742
255 1 0.234999 0.339568 0.0643066
4 1 0.249295 0.472446 0.194076
71 1 0.24263 0.352526 0.191194
181 1 0.414028 0.459154 0.0138217
70 1 0.366914 0.386592 0.0217591
301 1 0.487755 0.444256 0.0104653
390 1 0.498581 0.49132 0.0691113
22 1 0.377852 0.336645 0.094478
406 1 0.424729 0.467835 0.140131
277 1 0.814983 0.3419 0.127283
309 1 0.824886 0.442169 0.142297
34 1 0.676365 0.401427 0.047716
8 1 0.82114 0.34065 0.0159128
378 1 0.996832 0.385637 0.0292777
392 1 0.91529 0.406389 0.024919
77 1 0.839376 0.412537 0.0812415
244 1 0.156862 0.139329 0.238072
15 1 0.0825596 0.0495219 0.309201
381 1 0.140974 0.104946 0.298537
319 1 0.05301 0.0226888 0.219541
394 1 0.185193 0.146123 0.36649
252 1 0.177548 0.00381689 0.29947
473 1 0.334487 0.0785451 0.332037
167 1 0.428249 0.0408856 0.361485
107 1 0.484239 0.03732 0.21312
488 1 0.499067 0.166427 0.264644
148 1 0.451916 0.135196 0.208839
330 1 0.333908 0.122017 0.253385
426 1 0.541269 0.0394726 0.268986
92 1 0.528062 0.144884 0.322361
288 1 0.616057 0.0882073 0.305102
229 1 0.800299 0.13834 0.350684
481 1 0.816875 0.0692932 0.316721
42 1 0.720052 0.163174 0.320353
31 1 0.686002 0.0851831 0.324407
454 1 0.738626 0.0356001 0.35096
377 1 0.893742 0.0894555 0.257358
204 1 0.125166 0.330491 0.381385
297 1 0.0460597 0.306019 0.398552
427 1 0.237751 0.284447 0.238921
72 1 0.207938 0.320135 0.36998
339 1 0.211207 0.205402 0.208932
417 1 0.373904 0.246126 0.341878
101 1 0.422403 0.280634 0.232248
444 1 0.445159 0.293472 0.314184
14 1 0.503184 0.275059 0.385852
24 1 0.658647 0.296732 0.319988
307 1 0.540859 0.197161 0.397372
37 1 0.704579 0.195142 0.213526
273 1 0.703565 0.263618 0.392438
91 1 0.886189 0.289537 0.399528
455 1 0.889996 0.314306 0.219468
18 1 0.187275 0.472171 0.32851
492 1 0.2367 0.417802 0.260462
380 1 0.247601 0.337289 0.299194
281 1 0.405444 0.380235 0.30603
420 1 0.496445 0.451554 0.391306
258 1 0.458581 0.404312 0.343259
81 1 0.333448 0.466026 0.201748
68 1 0.573759 0.488469 0.226839
365 1 0.64699 0.442247 0.228155
371 1 0.631052 0.395905 0.275638
221 1 0.610294 0.35276 0.344251
423 1 0.795797 0.343422 0.273578
223 1 0.822645 0.393555 0.324329
61 1 0.937892 0.358555 0.268697
298 1 0.919962 0.436925 0.293063
386 1 0.0963126 0.016264 0.468056
257 1 0.0154677 0.0556078 0.436409
100 1 0.112325 0.0869698 0.536293
243 1 0.139893 0.156087 0.444635
477 1 0.0726137 0.156145 0.475672
495 1 0.269751 0.0653625 0.476986
267 1 0.331422 0.103693 0.436178
483 1 0.249929 0.114267 0.597927
240 1 0.449106 0.0558852 0.436296
171 1 0.406018 0.117517 0.564952
293 1 0.43114 0.0507003 0.59155
337 1 0.51286 0.00364976 0.440177
312 1 0.731824 0.0323406 0.519872
352 1 0.670795 0.0820602 0.531747
453 1 0.830049 0.125553 0.594234
86 1 0.940554 0.0592047 0.413467
498 1 0.876573 0.0901083 0.419089
360 1 0.880446 0.0809252 0.529944
97 1 0.876414 0.0135453 0.592317
232 1 0.0394015 0.258888 0.456211
470 1 0.0200234 0.166931 0.585568
109 1 0.0641813 0.253807 0.533503
400 1 0.242133 0.277225 0.434693
489 1 0.227632 0.319135 0.54063
286 1 0.305001 0.194212 0.463227
173 1 0.206697 0.186953 0.59145
89 1 0.362554 0.174584 0.509907
322 1 0.362758 0.301652 0.578987
241 1 0.37468 0.207015 0.572546
84 1 0.338539 0.253207 0.424245
491 1 0.665624 0.194309 0.582995
342 1 0.614199 0.178932 0.496238
110 1 0.778358 0.210917 0.584691
355 1 0.699938 0.171286 0.487837
328 1 0.778882 0.298631 0.417204
287 1 0.961799 0.233457 0.546068
231 1 0.850109 0.244524 0.468678
389 1 0.844512 0.262607 0.545682
5 1 0.978076 0.314443 0.408438
320 1 0.895947 0.206115 0.405032
165 1 0.103013 0.489619 0.487203
9 1 0.0900085 0.414837 0.463032
323 1 0.0522359 0.440359 0.553241
220 1 0.00592632 0.38554 0.468492
411 1 0.328178 0.347569 0.440693
383 1 0.2353 0.369045 0.594673
140 1 0.251968 0.354401 0.475714
41 1 0.360867 0.475359 0.580747
235 1 0.424062 0.337592 0.568715
213 1 0.558625 0.436056 0.451153
142 1 0.555431 0.341446 0.412628
21 1 0.644766 0.448789 0.442662
177 1 0.817803 0.402616 0.570773
462 1 0.782354 0.371219 0.443086
447 1 0.751783 0.427486 0.4133
112 1 0.853369 0.369277 0.511827
460 1 0.890276 0.45531 0.523727
269 1 0.0423753 0.100366 0.643637
357 1 0.111856 0.0759468 0.631589
248 1 0.0224879 0.0477817 0.701451
421 1 0.151843 0.00742182 0.690454
238 1 0.156082 0.0586168 0.781803
253 1 0.0708436 0.000702851 0.665233
189 1 0.202589 0.0520816 0.632788
120 1 0.468914 0.0296186 0.678438
415 1 0.44874 0.138221 0.767329
131 1 0.627887 0.037766 0.757614
438 1 0.623906 0.118623 0.600527
74 1 0.529944 0.145073 0.76265
215 1 0.59794 0.0976508 0.705421
62 1 0.813792 0.0562714 0.610268
503 1 0.767436 0.00589348 0.680965
208 1 0.942567 0.0494012 0.68854
403 1 0.976411 0.0414281 0.764877
19 1 0.145244 0.307947 0.637339
54 1 0.320702 0.278998 0.788251
296 1 0.213426 0.25085 0.656969
88 1 0.248329 0.273031 0.721934
393 1 0.406419 0.259023 0.758427
478 1 0.36662 0.216957 0.658053
336 1 0.418833 0.271447 0.684327
130 1 0.652664 0.331819 0.647884
64 1 0.627715 0.256631 0.632162
295 1 0.744006 0.210406 0.732007
451 1 0.703666 0.278566 0.707147
429 1 0.805372 0.191892 0.665572
187 1 0.869214 0.320214 0.747865
245 1 0.878356 0.256211 0.790516
315 1 0.863185 0.230058 0.706467
136 1 0.11828 0.476731 0.746876
431 1 0.0138466 0.391309 0.767127
138 1 0.0520777 0.431542 0.694187
302 1 0.0844154 0.357803 0.654725
469 1 0.220759 0.412296 0.769311
249 1 0.207761 0.485055 0.752926
260 1 0.177619 0.334607 0.799412
147 1 0.464064 0.453477 0.674564
67 1 0.426291 0.411825 0.645216
450 1 0.639925 0.491119 0.744291
80 1 0.508358 0.49495 0.61186
512 1 0.807438 0.380575 0.657417
276 1 0.734598 0.371172 0.71765
501 1 0.782078 0.496282 0.669241
303 1 0.850154 0.452068 0.690607
345 1 0.911535 0.475315 0.647932
119 1 0.885722 0.407065 0.783713
190 1 0.966403 0.453207 0.774881
1 1 0.0914569 0.0325671 0.909126
346 1 0.148114 0.103397 0.836532
480 1 0.28431 0.056899 0.829145
459 1 0.276615 0.0127016 0.897002
166 1 0.26326 0.113301 0.965614
178 1 0.277358 0.118647 0.865134
314 1 0.403939 0.11088 0.92699
482 1 0.364758 0.0631414 0.831909
452 1 0.421043 0.0948953 0.997911
233 1 0.563696 0.0968983 0.89378
280 1 0.52957 0.0269744 0.889755
66 1 0.583284 0.00869029 0.826013
396 1 0.987788 0.0453266 0.89067
300 1 0.938534 0.0572197 0.828006
353 1 0.0537496 0.314419 0.917793
424 1 0.156176 0.314746 0.994392
146 1 0.277837 0.251261 0.868887
159 1 0.205759 0.290567 0.872939
511 1 0.414079 0.182297 0.881341
219 1 0.447674 0.201934 0.80943
457 1 0.482114 0.329472 0.901736
96 1 0.560772 0.249726 0.895598
49 1 0.646645 0.259063 0.949839
26 1 0.572235 0.172734 0.84725
36 1 0.762892 0.227273 0.887055
439 1 0.707535 0.189179 0.937993
261 1 0.823707 0.286864 0.937333
17 1 0.782733 0.24895 0.80032
497 1 0.969058 0.313869 0.906164
443 1 0.898454 0.274107 0.877801
99 1 0.0559554 0.489555 0.903586
40 1 0.112006 0.337519 0.860345
289 1 0.0354413 0.357067 0.830165
170 1 0.157949 0.374681 0.924924
157 1 0.0717798 0.343402 0.995699
474 1 0.224186 0.392842 0.882974
209 1 0.29025 0.368688 0.979405
214 1 0.228925 0.489334 0.972516
410 1 0.284243 0.423807 0.913703
216 1 0.412979 0.366094 0.950433
242 1 0.43483 0.499644 0.939303
124 1 0.546846 0.350194 0.836178
363 1 0.661265 0.353031 0.947309
464 1 0.502155 0.375681 0.961333
430 1 0.577892 0.411165 0.804909
87 1 0.733841 0.365367 0.92368
32 1 0.810512 0.445545 0.831383
508 1 0.747007 0.392332 0.822105
43 1 0.668075 0.434689 0.815382
475 1 0.751377 0.43338 0.906673
376 1 0.927056 0.45558 0.942973
433 1 0.888368 0.349676 0.910879
82 1 0.111213 0.571902 0.0870329
145 1 0.0824827 0.640131 0.0694897
7 1 0.060197 0.554124 0.151636
212 1 0.0137547 0.630014 0.187842
163 1 0.372734 0.542109 0.15746
479 1 0.583492 0.529923 0.0952775
402 1 0.553512 0.637994 0.187622
95 1 0.671816 0.515388 0.188979
196 1 0.73355 0.513375 0.0487271
132 1 0.831999 0.592713 0.111043
179 1 0.746737 0.637988 0.106303
317 1 0.667864 0.531925 0.10277
466 1 0.836427 0.557403 0.0280185
418 1 0.850196 0.549514 0.185113
359 1 0.993371 0.531355 0.192033
262 1 0.030787 0.760756 0.0885838
306 1 0.0579552 0.812073 0.0073564
134 1 0.132041 0.677991 0.018559
385 1 0.422023 0.782669 0.185052
125 1 0.524062 0.800311 0.126647
183 1 0.623317 0.770889 0.0450584
20 1 0.620662 0.673901 0.18241
94 1 0.830689 0.817706 0.0686494
6 1 0.762461 0.673933 0.0219025
118 1 0.800206 0.749224 0.0349506
33 1 0.6842 0.764983 0.0952708
311 1 0.72074 0.699762 0.158875
442 1 0.991963 0.686576 0.0512203
326 1 0.876174 0.734776 0.125844
154 1 0.919773 0.674312 0.0681387
83 1 0.843503 0.697222 0.197191
98 1 0.123222 0.864976 0.0205367
211 1 0.0999605 0.956569 0.171287
151 1 0.218571 0.957141 0.0470289
408 1 0.212782 0.845401 0.0261383
218 1 0.349875 0.860461 0.048023
197 1 0.419552 0.968157 0.0908655
160 1 0.434482 0.945161 0.158645
382 1 0.560475 0.838651 0.0622648
57 1 0.598944 0.976678 0.0937598
137 1 0.583408 0.915296 0.0725919
143 1 0.861289 0.836559 0.137744
30 1 0.85292 0.902249 0.185476
362 1 0.977044 0.995275 0.19172
44 1 0.939787 0.929709 0.184315
168 1 0.0334514 0.654014 0.313323
270 1 0.173388 0.657562 0.355503
419 1 0.310082 0.625906 0.27019
404 1 0.290342 0.528406 0.244161
294 1 0.227295 0.605285 0.393165
313 1 0.212706 0.546876 0.287734
108 1 0.349546 0.600617 0.208339
104 1 0.549171 0.543063 0.290466
247 1 0.526773 0.614374 0.269117
13 1 0.557252 0.54442 0.368128
60 1 0.543193 0.631811 0.389109
126 1 0.719399 0.651708 0.262
52 1 0.933765 0.575203 0.31181
78 1 0.936885 0.568676 0.229005
485 1 0.906312 0.639608 0.357961
271 1 0.0119794 0.814313 0.315309
441 1 0.0455817 0.794206 0.234698
55 1 0.139273 0.820916 0.206018
361 1 0.100554 0.671219 0.349076
59 1 0.207465 0.786361 0.242009
75 1 0.200322 0.827604 0.37337
375 1 0.422053 0.718414 0.211007
50 1 0.47279 0.681673 0.285116
367 1 0.53168 0.756852 0.323125
259 1 0.599342 0.746259 0.250217
463 1 0.597365 0.781344 0.327417
39 1 0.532652 0.806428 0.214749
123 1 0.730584 0.740331 0.285694
46 1 0.800284 0.683104 0.259982
399 1 0.73477 0.77595 0.360825
127 1 0.884402 0.766688 0.358825
476 1 0.988804 0.683985 0.244711
3 1 0.957532 0.799509 0.365053
186 1 0.139967 0.879471 0.397894
409 1 0.0109648 0.896944 0.394558
388 1 0.0768266 0.888126 0.330815
199 1 0.135395 0.968483 0.353957
28 1 0.265663 0.947081 0.26393
279 1 0.409835 0.932213 0.314066
230 1 0.44739 0.970311 0.237123
290 1 0.346933 0.89387 0.380997
292 1 0.483533 0.866742 0.31791
246 1 0.542318 0.896521 0.320662
105 1 0.611584 0.968842 0.222917
285 1 0.619973 0.898887 0.257221
207 1 0.653408 0.86888 0.390408
350 1 0.738017 0.860551 0.270008
180 1 0.79165 0.99021 0.299412
324 1 0.786813 0.932801 0.248573
129 1 0.733873 0.879451 0.372899
391 1 0.791893 0.94552 0.377051
162 1 0.0461765 0.566678 0.502726
184 1 0.0699405 0.661832 0.534191
272 1 0.186535 0.564298 0.47535
506 1 0.315796 0.515628 0.523957
10 1 0.251381 0.55102 0.53657
472 1 0.230239 0.531975 0.414914
414 1 0.597673 0.648277 0.433509
369 1 0.65646 0.519311 0.434115
449 1 0.59724 0.504889 0.585384
372 1 0.577085 0.563927 0.532436
224 1 0.747443 0.610037 0.507199
448 1 0.681747 0.564606 0.493474
507 1 0.925096 0.575787 0.411947
144 1 0.887284 0.547261 0.48943
191 1 0.847955 0.54422 0.562585
384 1 0.985593 0.512982 0.590339
198 1 0.0139049 0.778221 0.490221
63 1 0.129361 0.714154 0.519708
413 1 0.134102 0.799249 0.555481
358 1 0.204721 0.703458 0.525616
225 1 0.239247 0.76177 0.412893
398 1 0.242969 0.758362 0.491055
73 1 0.386272 0.792611 0.54187
329 1 0.368563 0.808619 0.412407
38 1 0.399283 0.758083 0.465278
368 1 0.644245 0.690631 0.466014
308 1 0.606102 0.73855 0.512427
176 1 0.537576 0.744663 0.408271
344 1 0.799162 0.725193 0.519975
25 1 0.670678 0.760368 0.58275
318 1 0.738516 0.709282 0.464378
356 1 0.824597 0.76637 0.437523
484 1 0.996761 0.708362 0.542546
425 1 0.863888 0.715232 0.587237
305 1 0.0505578 0.928796 0.479818
387 1 0.00321053 0.863374 0.525355
510 1 0.142559 0.964859 0.531286
53 1 0.0517777 0.943289 0.593339
505 1 0.227622 0.875208 0.45943
174 1 0.199673 0.867134 0.543797
65 1 0.312907 0.995393 0.54394
458 1 0.234894 0.940829 0.591607
76 1 0.404081 0.991689 0.537755
79 1 0.608716 0.92121 0.436457
228 1 0.585149 0.992863 0.477044
499 1 0.812479 0.937854 0.561191
12 1 0.806138 0.847025 0.569383
2 1 0.852464 0.848027 0.412416
222 1 0.0971781 0.616581 0.77587
121 1 0.101353 0.504682 0.620998
254 1 0.0566274 0.638882 0.625969
27 1 0.119269 0.664226 0.718271
349 1 0.0452619 0.539154 0.641507
114 1 0.279752 0.558352 0.681633
45 1 0.331997 0.537453 0.61401
494 1 0.249868 0.548032 0.778793
236 1 0.238266 0.643192 0.648008
316 1 0.452503 0.502715 0.746188
195 1 0.41027 0.652215 0.67206
200 1 0.339935 0.589799 0.67254
354 1 0.588955 0.500097 0.664613
340 1 0.50104 0.548972 0.794495
268 1 0.792646 0.550632 0.62021
379 1 0.672502 0.600864 0.781577
446 1 0.709577 0.535889 0.712287
456 1 0.713665 0.661912 0.771943
428 1 0.940113 0.572688 0.716925
122 1 0.866289 0.605637 0.6939
502 1 0.119664 0.770769 0.734354
226 1 0.0115281 0.749917 0.796713
102 1 0.32153 0.687537 0.753296
351 1 0.247643 0.688672 0.710037
401 1 0.176553 0.765639 0.692145
201 1 0.242464 0.713283 0.605262
304 1 0.415511 0.797353 0.785193
250 1 0.378441 0.704452 0.607634
291 1 0.423513 0.765921 0.61535
432 1 0.580847 0.819391 0.64475
202 1 0.674371 0.828108 0.602595
256 1 0.896411 0.687814 0.661476
496 1 0.973727 0.68098 0.635508
103 1 0.910117 0.813227 0.765793
141 1 0.0781167 0.863459 0.623123
16 1 0.0620113 0.850373 0.69827
210 1 0.212605 0.954391 0.67783
11 1 0.298906 0.983287 0.655042
56 1 0.464571 0.986628 0.738638
437 1 0.479022 0.851898 0.780806
310 1 0.422148 0.847099 0.644505
205 1 0.46046 0.917688 0.6538
370 1 0.490363 0.849702 0.699661
422 1 0.661395 0.934925 0.751351
69 1 0.535858 0.883385 0.614695
51 1 0.749251 0.868841 0.648811
412 1 0.723404 0.876264 0.781674
185 1 0.802735 0.862309 0.793434
338 1 0.713555 0.941864 0.69202
278 1 0.888615 0.986395 0.675762
274 1 0.860481 0.885072 0.729172
155 1 0.970106 0.898879 0.601593
284 1 0.0927605 0.531175 0.81762
113 1 0.0388723 0.527324 0.970476
217 1 0.316786 0.586304 0.947008
175 1 0.20691 0.657244 0.973292
416 1 0.272286 0.520152 0.9059
465 1 0.307874 0.532543 0.838934
203 1 0.396636 0.546025 0.830826
486 1 0.38387 0.611678 0.886626
335 1 0.454699 0.663091 0.914633
153 1 0.645129 0.531958 0.940575
90 1 0.522527 0.605183 0.862662
135 1 0.522945 0.645055 0.917734
239 1 0.507081 0.526868 0.907492
397 1 0.572901 0.573401 0.958809
327 1 0.771564 0.600271 0.978049
93 1 0.73016 0.521459 0.971569
35 1 0.958662 0.597707 0.946482
332 1 0.897346 0.65546 0.843558
373 1 0.951343 0.579698 0.85113
275 1 0.91657 0.521431 0.983517
139 1 0.98923 0.514382 0.823367
182 1 0.0231299 0.677415 0.958621
29 1 0.0768098 0.675413 0.832798
436 1 0.0912607 0.737186 0.96143
149 1 0.0231365 0.711243 0.883567
234 1 0.318608 0.72736 0.902824
347 1 0.252098 0.812778 0.96189
395 1 0.233375 0.741151 0.930922
364 1 0.358331 0.7888 0.8441
150 1 0.386669 0.683515 0.930768
156 1 0.792814 0.796695 0.949291
331 1 0.746318 0.751717 0.901893
509 1 0.684204 0.693961 0.869937
128 1 0.785796 0.68861 0.859157
434 1 0.886102 0.669004 0.98053
348 1 0.856112 0.669067 0.902895
111 1 0.92893 0.7259 0.806316
227 1 0.0514083 0.967834 0.895675
343 1 0.140836 0.961084 0.839104
334 1 0.10594 0.893896 0.945133
48 1 0.197587 0.953862 0.917743
237 1 0.283767 0.948297 0.853804
115 1 0.298963 0.837908 0.902465
206 1 0.20056 0.997746 0.993346
172 1 0.451793 0.922378 0.81536
500 1 0.435654 0.913797 0.92206
117 1 0.48861 0.977772 0.935862
169 1 0.397154 0.874789 0.979979
374 1 0.750428 0.980997 0.882511
152 1 0.807183 0.93584 0.867893
461 1 0.670784 0.971698 0.839684
321 1 0.889056 0.941925 0.852488
282 1 0.864489 0.837925 0.927314
263 1 0.977899 0.969928 0.869424
471 1 0.868832 0.837748 0.841936
