
units metal
atom_style atomic

if "data == data" then "read_data random.data"
read_data random.data
Reading data file ...
  orthogonal box = (0 0 0) to (17.235478 17.235478 17.235478)
  1 by 2 by 5 MPI processor grid
  reading atoms ...
  512 atoms
  read_data CPU = 0.003 seconds
if "data == data" then "reset_timestep 0"
reset_timestep 0
if "data == continuation" then "read_restart lammps_runs/run_nvt_test/restart_nvt_C.*"

mass 1 12.011  # mass of carbon
pair_style quip
pair_coeff * * potentials/carbon.xml "" 6

neighbor 2.0 bin
neigh_modify every 1 delay 0 check yes

variable nAtoms equal atoms
group carbon type 1
512 atoms in group carbon
timestep 0.001
fix removeMomentum all momentum 1 linear 1 1 1

compute T all temp
fix TempAve all ave/time 100 1 100 c_T

variable P equal press
fix PressAve all ave/time 100 1 100 v_P
variable v equal vol
fix vAve all ave/time 100 1 100 v_v
compute PE all pe pair
variable PE_Atom equal c_PE/v_nAtoms
fix PEAve_Atom all ave/time 100 1 100 v_PE_Atom

compute MSD all msd

thermo_style custom step cpu temp f_TempAve press f_PressAve f_PEAve_Atom vol f_vAve c_MSD[4]
thermo_modify flush yes
thermo 100
dump traj       all atom 100 lammps_runs/run_nvt_test/NVT/dump_nvt_C.*.cfg
restart 100 lammps_runs/run_nvt_test/restart_nvt_C.*

variable Nrun1 equal 1000
variable Nrun2 equal (${Nrun1}+1000)
variable Nrun2 equal (1000+1000)
if "1000 > 0 && $(step) == 0" then "velocity all create 9000 2023"
velocity all create 9000 2023

run 0
WARNING: No fixes with time integration, atoms won't move (src/verlet.cpp:60)
Neighbor list info ...
  update every 1 steps, delay 0 steps, check yes
  max neighbors/atom: 2000, page size: 100000
  master list distance cutoff = 5.7
  ghost atom cutoff = 5.7
  binsize = 2.85, bins = 7 7 7
  1 neighbor lists, perpetual/occasional/extra = 1 0 0
  (1) pair quip, perpetual
      attributes: full, newton on
      pair build: full/bin/atomonly
      stencil: full/bin/3d
      bin: standard
Per MPI rank memory allocation (min/avg/max) = 7.106 | 7.107 | 7.109 Mbytes
   Step          CPU            Temp        f_TempAve        Press        f_PressAve    f_PEAve_Atom      Volume         f_vAve        c_MSD[4]   
         0   0              9000           9000           45037.514      45037.514     -154.74294      5120           5120           0            
Loop time of 9.3233e-06 on 40 procs for 0 steps with 512 atoms

83.7% CPU use with 10 MPI tasks x 4 OpenMP threads

MPI task timing breakdown:
Section |  min time  |  avg time  |  max time  |%varavg| %total
---------------------------------------------------------------
Pair    | 0          | 0          | 0          |   0.0 |  0.00
Neigh   | 0          | 0          | 0          |   0.0 |  0.00
Comm    | 0          | 0          | 0          |   0.0 |  0.00
Output  | 0          | 0          | 0          |   0.0 |  0.00
Modify  | 0          | 0          | 0          |   0.0 |  0.00
Other   |            | 9.323e-06  |            |       |100.00

Nlocal:           51.2 ave          60 max          44 min
Histogram: 1 2 1 1 0 1 2 1 0 1
Nghost:          815.1 ave         840 max         780 min
Histogram: 1 0 1 0 3 0 1 0 1 3
Neighs:              0 ave           0 max           0 min
Histogram: 10 0 0 0 0 0 0 0 0 0
FullNghs:       3924.8 ave        4758 max        3261 min
Histogram: 1 1 1 2 1 1 1 1 0 1

Total # of neighbors = 39248
Ave neighs/atom = 76.65625
Neighbor list builds = 0
Dangerous builds = 0
fix integrate all nvt temp 9000 9000 0.1
if "$(step) < ${Nrun1}" then "run ${Nrun1} upto"
run ${Nrun1} upto
run 1000 upto
Per MPI rank memory allocation (min/avg/max) = 7.106 | 7.107 | 7.109 Mbytes
   Step          CPU            Temp        f_TempAve        Press        f_PressAve    f_PEAve_Atom      Volume         f_vAve        c_MSD[4]   
         0   0              9000           9000           45037.514      45037.514     -154.74294      5120           5120           0            
       100   43.179437      12289.992      12289.992      160892.05      160892.05     -155.47246      5120           5120           9.6100553    
       200   86.381652      10436.418      10436.418      83149.081      83149.081     -155.58601      5120           5120           20.201032    
       300   130.14824      9040.9555      9040.9555      69820.276      69820.276     -155.66487      5120           5120           30.030614    
       400   172.13764      8724.6809      8724.6809      66619.214      66619.214     -155.74949      5120           5120           37.342991    
       500   213.92301      8486.8047      8486.8047      66725.767      66725.767     -155.75587      5120           5120           44.409337    
       600   260.29129      8621.49        8621.49        96440.642      96440.642     -155.69923      5120           5120           51.952019    
       700   306.36602      9259.3136      9259.3136      90910.282      90910.282     -155.67762      5120           5120           59.634522    
       800   350.54371      9481.1027      9481.1027      89822.692      89822.692     -155.7024       5120           5120           66.895441    
       900   393.40243      8802.4412      8802.4412      91232.532      91232.532     -155.71292      5120           5120           76.164568    
      1000   437.02285      9153.3629      9153.3629      70292.961      70292.961     -155.82339      5120           5120           83.723069    
Loop time of 437.023 on 40 procs for 1000 steps with 512 atoms

Performance: 0.198 ns/day, 121.395 hours/ns, 2.288 timesteps/s
89.2% CPU use with 10 MPI tasks x 4 OpenMP threads

MPI task timing breakdown:
Section |  min time  |  avg time  |  max time  |%varavg| %total
---------------------------------------------------------------
Pair    | 332.23     | 363.05     | 382.71     |  79.5 | 83.07
Neigh   | 0.015098   | 0.015997   | 0.016549   |   0.4 |  0.00
Comm    | 54.253     | 73.918     | 104.74     | 176.1 | 16.91
Output  | 0.0049419  | 0.004966   | 0.0051337  |   0.1 |  0.00
Modify  | 0.026145   | 0.026521   | 0.027256   |   0.2 |  0.01
Other   |            | 0.008067   |            |       |  0.00

Nlocal:           51.2 ave          57 max          45 min
Histogram: 1 0 1 0 1 5 0 0 1 1
Nghost:          801.9 ave         815 max         785 min
Histogram: 2 0 1 0 1 0 0 3 1 2
Neighs:              0 ave           0 max           0 min
Histogram: 10 0 0 0 0 0 0 0 0 0
FullNghs:       3929.4 ave        4482 max        3402 min
Histogram: 1 0 1 2 1 2 1 1 0 1

Total # of neighbors = 39294
Ave neighs/atom = 76.746094
Neighbor list builds = 98
Dangerous builds = 0
unfix integrate

fix integrate all nvt temp 9000 300 0.1
if "$(step) < ${Nrun2}" then "run ${Nrun2} upto start ${Nrun1} stop ${Nrun2}"
run ${Nrun2} upto start ${Nrun1} stop ${Nrun2}
run 2000 upto start ${Nrun1} stop ${Nrun2}
run 2000 upto start 1000 stop ${Nrun2}
run 2000 upto start 1000 stop 2000
Per MPI rank memory allocation (min/avg/max) = 7.106 | 7.108 | 7.109 Mbytes
   Step          CPU            Temp        f_TempAve        Press        f_PressAve    f_PEAve_Atom      Volume         f_vAve        c_MSD[4]   
      1000   0              9153.3629      9153.3629      70292.961      70292.961     -155.82339      5120           5120           83.723069    
      1100   44.033326      8684.2897      8684.2897      92818.311      92818.311     -155.76062      5120           5120           89.14224     
      1200   90.292559      8047.6951      8047.6951      52362.747      52362.747     -155.80244      5120           5120           94.10706     
      1300   133.81634      7925.3007      7925.3007      81642.525      81642.525     -155.91687      5120           5120           99.311385    
      1400   176.08208      6959.4928      6959.4928      63177.589      63177.589     -155.97727      5120           5120           105.9242     
      1500   218.19937      6130.6231      6130.6231      40179.068      40179.068     -156.07353      5120           5120           109.01657    
      1600   260.81826      5521.6398      5521.6398      13627.35       13627.35      -156.22567      5120           5120           112.37033    
      1700   304.69012      4743.3293      4743.3293      33187.943      33187.943     -156.37631      5120           5120           114.04915    
      1800   349.11989      4171.2461      4171.2461      14218.048      14218.048     -156.58424      5120           5120           115.92031    
      1900   394.82126      3454.7728      3454.7728      24117.166      24117.166     -156.79166      5120           5120           115.45765    
      2000   441.0322       2442.2861      2442.2861      22861.128      22861.128     -157.01368      5120           5120           115.83992    
Loop time of 441.032 on 40 procs for 1000 steps with 512 atoms

Performance: 0.196 ns/day, 122.509 hours/ns, 2.267 timesteps/s
88.9% CPU use with 10 MPI tasks x 4 OpenMP threads

MPI task timing breakdown:
Section |  min time  |  avg time  |  max time  |%varavg| %total
---------------------------------------------------------------
Pair    | 321.33     | 364.84     | 397.46     | 129.8 | 82.72
Neigh   | 0.011117   | 0.012153   | 0.013022   |   0.6 |  0.00
Comm    | 43.518     | 76.146     | 119.65     | 284.2 | 17.27
Output  | 0.0047982  | 0.0048268  | 0.004995   |   0.1 |  0.00
Modify  | 0.023891   | 0.025745   | 0.027134   |   0.7 |  0.01
Other   |            | 0.007937   |            |       |  0.00

Nlocal:           51.2 ave          60 max          36 min
Histogram: 1 0 0 0 3 0 1 2 1 2
Nghost:          811.6 ave         841 max         791 min
Histogram: 1 1 0 3 2 1 1 0 0 1
Neighs:              0 ave           0 max           0 min
Histogram: 10 0 0 0 0 0 0 0 0 0
FullNghs:       3948.4 ave        4810 max        2711 min
Histogram: 1 0 0 1 2 0 3 0 1 2

Total # of neighbors = 39484
Ave neighs/atom = 77.117188
Neighbor list builds = 75
Dangerous builds = 0
unfix integrate

write_data lammps_runs/run_nvt_test/out_data_quench_C
System init for write_data ...
Total wall time: 0:14:40
