LAMMPS data file via write_data, version 23 Jun 2022, timestep = 2000

512 atoms
1 atom types

0 17.23547752 xlo xhi
0 17.23547752 ylo yhi
0 17.23547752 zlo zhi

Masses

1 12.011

Atoms # atomic

306 1 0.4881710474151052 0.9361519027187176 1.3961141992443187 0 1 1
145 1 0.9305918442243549 0.30300268867360597 2.3352326656897016 0 1 0
119 1 0.6258753046537245 2.049517195033236 0.7117191351939816 1 1 1
142 1 7.297104234499071 2.732049710472598 2.6303041606389277 0 0 0
468 1 7.830658235818809 1.5710525372123616 2.1175733338766194 0 0 0
301 1 7.803875008828667 0.5258829436517151 1.02564696557897 0 0 0
218 1 9.805574042450662 1.9235864489479004 0.9860832583557948 0 0 0
58 1 9.216512928639116 1.82260503918251 2.2576536543196104 0 0 0
160 1 9.139458213675859 0.7988670511759187 0.438200272219707 0 0 0
192 1 13.042540362582605 2.831531069290879 1.9566158535380596 0 1 0
321 1 13.832448423592789 2.2683520547446623 0.08669881400959967 0 1 1
187 1 0.12458876549356254 4.740838440967676 0.9176285047136317 1 0 1
400 1 1.4561286512423972 4.534627066099881 0.9883921528989087 0 0 0
211 1 2.598093494257188 5.242050952022149 1.2735688803246628 1 1 1
193 1 3.8383971899236493 4.499219451838148 0.9902279239515905 1 0 1
443 1 4.953596924234083 4.495578637806181 1.8367582025501956 1 0 1
497 1 5.238238585780521 5.647291738261896 2.744760762469716 0 0 0
319 1 6.020116570470978 3.497004797358601 1.6114584710854891 1 1 0
258 1 8.229367231097896 3.449600112071118 3.376942890067128 0 1 -1
427 1 7.071256772343752 3.530807403308569 0.6964529092172063 0 0 0
490 1 8.69869145441485 4.691245190146531 3.342369417487668 0 0 0
197 1 10.729044544578887 2.9640788001380103 0.2807229670258756 -1 0 0
96 1 11.213700997338366 4.370525872729752 2.3910317212403265 0 1 1
196 1 9.871193346821812 4.9442668743799825 2.411550988742964 -1 0 0
441 1 13.924196761915402 3.2455446344396326 1.0088002979784334 0 1 0
377 1 11.612476900076311 3.1905652736536596 1.560167866145748 0 1 1
118 1 12.16915616384621 5.276198635991894 2.8515491513505515 0 0 1
17 1 16.34691732352633 4.269643425482323 1.8768628847270135 0 1 1
350 1 16.389380859527748 4.369387530227809 3.2116079806131137 0 0 0
85 1 15.291005467143824 3.761810149201704 0.8490939048835405 0 0 0
392 1 1.5902137183140477 7.519289889462736 1.2575516150868487 1 0 1
225 1 2.8089331556287864 8.586348682928907 3.0746299762717784 1 0 0
365 1 0.6224870701335036 7.418211908278577 0.4327911313248015 1 0 0
170 1 2.535195405291946 6.618059517378994 1.697746697980838 0 0 1
40 1 3.2451825642841112 7.272139824327992 2.635993619555199 1 0 1
232 1 4.613015267061459 6.970475052041242 3.0551434722350552 1 1 0
151 1 7.968147743648228 5.869289565050459 3.022791568671319 0 1 1
474 1 6.562829326093537 6.156705494484082 3.1534645709019564 0 -1 1
410 1 8.065130867477736 8.300221263402797 3.3388229483837404 0 0 1
380 1 5.793089164501117 7.562180103239427 3.3170093788880477 0 0 0
407 1 6.74598566704831 8.581337984071586 3.441982363086593 0 0 0
469 1 8.064424159416255 7.9973891779476105 0.08267731648843579 0 0 1
8 1 11.47976064047805 6.434224246328543 0.06598425539714262 0 0 1
255 1 10.020885046666548 6.5610786330389645 0.6796102750439968 0 0 0
163 1 8.759574949584767 6.956932686974858 3.3666045561599987 0 0 0
158 1 9.750730943135505 6.4611672636437065 2.2564842537815313 0 -1 0
340 1 9.373905133022344 7.765195322334765 0.05190224228194751 0 0 1
94 1 13.449400469364322 5.757065771398107 2.4674523886069095 -1 0 1
61 1 11.875919441813577 8.330694882172779 1.663341286927302 0 0 0
479 1 11.570242160242033 7.9309047497708365 0.11664836408018656 0 0 1
101 1 11.544759031690601 7.532611778572662 2.786404719724556 0 0 0
93 1 15.636555776317747 7.105089998507157 1.6595730326766882 0 -1 0
249 1 16.592387516783752 6.763298680106597 0.6275520653057837 -1 0 1
363 1 14.533273095352941 6.316889941251856 2.21978817459823 -1 0 0
309 1 15.521412521597624 8.569717941940372 1.5764774439749085 -1 0 0
405 1 0.6320047946404386 1.3486059333980887 5.843445227773368 1 0 0
281 1 3.8898124186475633 1.4201835461467627 4.998528359067937 0 1 0
435 1 4.276589536804926 0.6549491623755357 5.788790155538467 1 1 1
70 1 9.288629201115478 2.494472263948857 3.5554526018451753 0 0 1
133 1 13.513675178551896 2.7503296249117697 3.4928465423940382 0 1 0
481 1 14.825710699226862 2.6649023157841034 4.0755280954376385 0 0 0
417 1 15.451621277763072 0.3094179147371562 4.465227754132225 -1 0 0
89 1 16.821933573868638 2.1339861590785354 5.299366708758496 -1 0 0
366 1 15.85298880541336 1.7477396968760859 4.402485511183733 -1 1 0
287 1 1.316698102529599 5.2167084021734045 6.278753627046528 1 0 0
418 1 0.03795360716521401 5.148493051343545 4.226320812278864 1 0 1
386 1 0.8513732923280043 3.8718069703249562 6.542452526802354 1 0 0
173 1 2.7711484829435897 5.274144361070867 6.8755512506310374 1 0 0
71 1 8.882461566747335 5.201403978682899 6.7836994124570245 0 0 1
188 1 10.242691521026929 3.027851221108309 4.524548277391618 0 1 0
503 1 10.558924380726829 3.802419645219157 5.687449740219606 0 1 0
26 1 9.93082546897119 4.257016063230354 6.883108873325998 0 1 1
341 1 11.507371573360095 3.1761292824239584 5.11810256002022 0 0 0
87 1 12.829477168695721 3.098031829670766 4.693609250749796 0 0 1
5 1 14.002464513929112 5.531520702633206 5.712553441721004 -1 0 0
207 1 13.433463103553718 4.236318366738301 5.8719185647930825 0 1 1
320 1 15.26788157911499 5.54137034138042 5.986490964219603 0 1 0
271 1 15.649951329846926 3.839434038679769 4.178317658989791 0 0 0
333 1 16.26986441663834 4.702475076143375 5.272608271742779 0 0 0
277 1 16.989617777589793 3.5038542511515236 5.842122578861285 -1 0 0
86 1 0.7540599062169558 6.045538341140605 5.204979886802182 1 0 0
109 1 0.510846544661086 7.605387857140736 5.105222921433447 1 0 0
393 1 4.145751809257042 6.034400278615266 6.530520554462856 0 0 0
116 1 8.517021696947257 6.6706987123770185 5.855565405014001 1 0 0
352 1 9.845770881534875 8.517296489959106 4.934832488658096 0 1 0
464 1 10.886520538046046 6.745521952301677 5.302850918992164 0 0 1
266 1 9.3786995070755 6.986616565875301 4.695932938576323 1 0 0
68 1 10.506217502961162 6.799007244585144 6.6225174746035185 0 0 0
342 1 12.270234124295435 6.652516667580273 4.967573393978791 0 0 0
433 1 13.183295581963955 6.594401742487654 5.898947879483175 0 0 1
22 1 12.433930654939616 6.532712644618154 3.456328600539706 0 0 1
325 1 1.3642735040309786 1.7235951121209374 7.025275666720888 0 0 0
421 1 0.0537183615315231 0.14246111440441311 9.57130108335232 1 1 0
146 1 1.4099503402117421 0.5150158349893815 7.759024436613094 0 0 0
37 1 8.582654089763325 1.6906301669740813 8.483542874868977 0 0 0
213 1 7.783487238004666 2.17756242548944 9.395481353360726 0 0 0
60 1 8.900890075764364 0.36899440786652327 8.004577826644732 0 2 0
129 1 9.525906547698327 2.77994554445837 8.847172753589668 0 1 0
368 1 10.953695890782248 0.6302141945856358 9.67440826761269 -1 1 0
42 1 13.796227991981484 2.382529600897204 7.481628468413776 0 0 0
257 1 12.094725413696114 0.887188521215335 8.906599027611495 0 0 0
171 1 12.691482157149508 2.0635307188096235 8.32912899203479 0 0 0
391 1 14.709526116568417 1.5724076497203694 7.217208634572748 -1 0 0
269 1 16.683525360977384 1.4381161901190647 9.69950012678954 0 0 0
16 1 14.910358337965114 0.27249489776943187 7.201589927541585 -1 1 1
252 1 15.50544685220462 1.2912731567280464 10.17877297185489 -1 0 0
11 1 2.349839478672249 3.526277804747545 8.400543819512489 0 1 0
307 1 1.6432325476844996 3.0573835802220026 7.364501870078855 0 0 0
431 1 3.0814452548376083 4.6436479255539505 8.098670760755605 1 0 0
411 1 4.803698466390384 5.642880326628949 7.559353789844198 1 0 1
41 1 3.8129401312953415 4.7875365879079945 9.272071133074874 0 0 0
328 1 5.192358396187411 5.324974902765572 8.877923293919176 -1 0 1
67 1 6.778136995258933 2.986428896659901 9.901519819827394 1 0 1
216 1 6.104659554731998 5.535666750927003 9.917152132757948 0 0 -1
293 1 7.021715007174295 4.42849962771521 9.938419852176924 1 0 0
79 1 9.88052465963841 3.3597321059464806 9.966053518209991 0 1 0
164 1 10.857647505587952 5.519962385456035 7.28313582199233 0 0 0
372 1 11.040844599793587 4.020571848286944 10.078365024899806 0 0 0
322 1 10.367945554443816 3.113334755056616 7.771715845683814 0 0 0
470 1 13.33785890931921 3.6356143825744045 7.121856387877876 0 0 0
243 1 11.791095674508469 2.9844911273424337 7.735620424725518 -1 0 0
355 1 11.791185900543214 5.4863630468245 8.309052120520782 -1 1 0
34 1 11.657156770732874 5.161134300457751 9.729648994227551 0 0 1
357 1 17.042093035105786 2.8756195015463195 9.680221193850636 -1 0 0
396 1 16.034421794274873 5.097928529716938 9.646059316855677 -1 -1 -1
100 1 15.851902197025273 3.7543975571146753 10.028261158447094 0 0 0
506 1 2.286309995682178 7.846889285197521 9.267323641547517 0 0 0
45 1 1.3275644786024354 6.8977793439014095 9.586689172875289 0 0 0
472 1 4.278591694803567 8.45708573605601 8.799205746366406 0 0 -1
19 1 3.687253138414337 7.712549790278048 9.757406889765553 1 1 0
4 1 7.810169098491696 7.204019303809483 6.979460689104765 0 0 1
420 1 8.268249230250976 5.852084999021991 7.772013749515714 0 0 0
462 1 8.541152506930649 5.996424110450676 9.066640264505349 -1 0 0
14 1 6.471870863457377 8.297441481033516 9.634037959571357 0 0 0
108 1 7.689744509704486 8.474698239700047 7.06152038976389 0 0 0
209 1 10.055958387926218 8.278775610466425 7.2777003001227785 0 0 1
241 1 9.017170123215148 8.345276823071096 9.95045565985186 0 1 -1
13 1 8.626092121748252 6.863262918578986 10.196209430681112 0 0 0
311 1 12.65248164928349 6.584051288735439 8.408115945589707 0 0 0
507 1 14.086126127760117 7.758085834215265 10.050312284490863 -1 0 1
423 1 13.259224178933563 6.997497023498967 7.225203823867173 -1 0 0
139 1 13.056651454211476 6.893017166035251 9.759581730450344 0 0 -1
273 1 15.616553632946339 6.219976077609034 7.293246006568908 0 1 0
302 1 16.544276001723848 5.906539957933893 8.312145536506414 -1 0 0
10 1 17.205592492364357 7.111928314967817 8.871252278181613 -1 0 0
91 1 14.587393624865129 7.129471731571551 7.763090283105737 0 0 0
165 1 14.52293275767867 8.149543819565483 8.784284716126306 -1 0 0
480 1 1.8234784950266996 1.7517290077894343 12.95969224217718 0 0 -1
44 1 0.46769116172685493 1.2088697250945502 13.285732757492548 1 1 -1
48 1 2.9207292705047596 0.9528062820692107 12.917426831399736 1 1 -1
205 1 5.554015969788481 1.672361810556578 12.132473726326007 0 1 0
482 1 4.18454908282618 1.6773355922603754 12.515369704010094 0 0 0
491 1 7.924743536357141 2.2627845569566403 11.566109692236717 0 1 0
120 1 6.21207560718606 0.7180798338043699 13.006308130103829 0 1 0
370 1 6.258770951832744 2.281341349943664 11.16093559207753 0 1 0
312 1 9.545017130531544 0.5298124500306858 11.24839297288395 -1 1 0
177 1 11.475228084303488 2.7799223744944164 12.68872794585898 -1 0 0
233 1 8.742077865910476 1.0775621040356802 12.231208319470277 -1 0 -1
74 1 10.951049154245583 0.9299257410127383 11.041947396493278 0 0 0
231 1 13.378755161943719 2.001059712724932 11.660169624404894 0 0 0
389 1 11.932799702349612 1.757816763875491 11.685340536399577 0 0 -1
425 1 14.265810267624985 1.3755068615257249 10.859316989571314 0 1 0
190 1 15.13475272258718 1.4697421987364039 13.525132484822098 0 0 0
24 1 14.492682429282581 0.19846098306869894 10.380280561332667 -1 0 0
314 1 16.398889682692925 1.7125907761981658 12.941803954569188 0 0 -1
64 1 1.5671162832496952 5.692274499309779 13.237500975298982 0 1 0
494 1 2.0347993934866495 3.048940101715827 12.339257390182265 1 1 -1
15 1 0.8198763335909233 3.4774465124969307 10.67240765641488 1 0 0
238 1 0.3430266911319172 3.7511412900064225 12.068969821674392 1 0 0
201 1 2.1958176645188843 3.587413963909168 11.027748832182766 0 0 0
483 1 3.4172494274149856 4.267936909698453 10.686520979057313 0 0 0
88 1 4.3964678372351536 4.150383356884243 11.735024968795763 1 0 0
130 1 5.334324145795089 5.186533224940492 12.14471903972823 0 1 -1
56 1 3.703543439572267 3.1836978855437947 12.734462069880985 0 0 0
336 1 7.610405402256778 3.616447327741053 12.435637884672667 0 0 0
219 1 8.1270234463726 4.493076780313109 11.26556183562159 0 0 0
80 1 6.157594429781628 4.86923350566202 13.34307882504523 -1 0 0
299 1 10.035909251974369 3.424993133547618 12.59959019678664 0 0 0
488 1 9.213199220301323 3.3213044346460308 11.324233197793331 0 0 0
152 1 13.76433772346131 3.442586410298283 11.636674321937136 0 1 -1
373 1 11.996610565310533 5.316075883605892 12.87730906119482 0 0 -1
245 1 12.895523578239532 4.0984920365434405 12.762663607006036 -1 1 0
110 1 16.296533939767876 3.101515924901835 12.359365626938297 0 1 0
248 1 16.571774106250764 4.841699276761016 12.808072340616508 0 0 -1
498 1 15.467931988519892 5.152460713265878 11.980356747907289 0 0 0
295 1 15.1971043486359 3.743835925160277 11.472651030206032 0 1 0
121 1 0.4597165231255398 7.4520259514640905 12.16521759702432 0 0 0
140 1 1.9757737782730949 6.494337433691436 12.121524933694644 0 0 0
149 1 0.36173387338787794 8.551470344828834 13.098861819064753 0 0 0
360 1 1.2919408078635515 6.962567992882791 10.989902439869544 1 1 0
113 1 3.517512635225035 7.21881868943538 12.108351772826927 1 1 0
354 1 4.3463935665791515 7.258297842209008 10.872886572314513 0 0 -1
112 1 5.596848840006606 6.320976031003801 11.301033698192768 -1 0 0
477 1 4.056256304721906 8.303551450535405 13.553053372005394 0 0 0
413 1 2.9161221844562535 8.316328479289316 12.895355465538671 0 0 0
438 1 8.230658763008957 6.023797374306749 11.330037245423856 0 1 0
316 1 7.587601133919204 6.457489941647195 12.389032621934279 0 0 0
147 1 6.0192122273578486 7.8423780780921275 10.821790800771627 0 0 0
217 1 6.819948297833778 6.4387166830731015 13.41969570531922 0 0 -1
6 1 11.305917789134616 7.751073330451925 12.907438543367675 0 0 0
242 1 11.796466349785156 6.578559813709928 12.00191978655369 0 0 -1
446 1 12.186849021565989 6.206845219790274 10.649781459962362 0 0 0
220 1 14.276938515655424 8.436868671104637 11.505280397223235 0 0 0
467 1 16.338129527128253 7.003719399039515 11.559782827389185 -1 0 0
453 1 16.029778323483793 5.79010266989698 10.781162632028105 0 1 0
489 1 15.545167142337068 8.149511785840918 11.767173871573904 0 0 1
169 1 0.7749578716241989 2.8551283773663125 16.860610883050917 0 1 -1
115 1 7.315271227487689 2.3401912415835135 14.284735420930856 0 1 0
347 1 7.21971884600716 0.42596188237122395 15.45548249225381 0 1 0
39 1 7.19984771649489 0.929681181466461 13.920908174367542 -1 1 -1
159 1 7.274877719719005 1.9080340156143265 15.618904826696532 0 0 -1
131 1 9.576968621382528 0.32189084507178134 16.220870310604614 0 0 0
415 1 10.51443623727413 0.39621728275152834 14.971324931251981 0 0 0
30 1 12.944913693468099 1.018876111438759 15.009661879486755 0 0 -1
148 1 11.542880473629724 1.237276971483295 14.525303216506446 0 0 -1
261 1 14.246810708010468 0.7093564163169446 14.295675965812057 0 0 0
450 1 11.757068193606711 2.607727502904261 14.043815554000599 0 0 0
178 1 13.54838234119951 1.4282423774239876 16.301817139219263 -1 0 0
222 1 1.2153345535097 5.5698425755839684 14.543471429109312 1 0 0
296 1 1.7155751171041609 3.4887173630465584 16.058195896914597 0 0 -1
172 1 1.9072159319642346 4.863718501776236 15.544839491999186 0 1 0
353 1 5.049302835396652 4.576889164548373 14.337547150201145 1 0 0
346 1 4.242133964486617 3.2790692659723706 14.349941967465025 1 0 0
511 1 3.694012253098987 3.5414022157152 15.600183517621064 0 0 -1
157 1 3.2055634440027228 4.946622674903996 15.693379523314109 0 0 -1
254 1 4.489222303332846 5.582056845125633 15.20243735747878 1 0 0
504 1 3.9589923335201487 3.6840151146156335 17.18415449539489 1 1 0
286 1 7.482028233626673 3.05323194005389 16.596370728854637 0 0 -1
117 1 7.792535618533928 3.5017481591025597 13.872429970688069 0 0 0
451 1 10.631257681932057 3.8255554113814396 14.58668526631754 0 0 0
43 1 9.384524617270754 3.6679353630268294 13.825586629847741 0 0 0
430 1 8.796480665280471 3.193373859477398 16.086922536111416 0 0 0
276 1 11.182623828644692 5.28800942662814 14.195756669681845 0 0 -1
54 1 10.195770519458142 3.561677450321278 16.275237823335484 0 0 0
23 1 13.07514294730731 3.5391704666582995 14.321043180351253 -1 0 -1
3 1 13.827775848693792 4.3156441339716585 15.022480682941374 0 1 -1
280 1 16.92942253763146 5.501298197379709 14.101333944625603 0 1 -1
124 1 14.770237274495072 5.068270811473503 15.74442998333214 0 0 0
77 1 16.58542806501929 5.422421226535563 17.14468256197073 0 0 -1
512 1 15.343562920953934 4.517063239244244 16.906033639075698 0 0 0
49 1 4.464145355205146 6.854852237490028 15.549762868373012 0 1 0
214 1 5.030751279153326 7.688446218083714 16.511777522311267 0 0 -1
114 1 5.130694672498172 7.853912429069143 14.435810099873775 1 -1 0
383 1 6.5354412101459225 7.640184885113829 13.897357149424877 0 0 0
247 1 10.637019411541228 8.605510969101704 16.71405655756348 0 0 -1
461 1 11.598435387610493 7.550063070719908 14.362638654080481 0 0 0
315 1 11.787877859874587 6.269583217194264 15.128779956731133 0 0 1
379 1 13.760385827322311 6.503827783521132 16.356160707479326 0 0 0
371 1 12.404560612055814 6.211109152480281 16.255212168854023 0 0 -1
275 1 15.658385116822108 5.936406071439117 14.99312569972511 0 0 0
445 1 14.384972487113602 7.69283663154167 15.669474207835847 0 0 -1
466 1 16.898174354883153 8.338090175201938 15.56394258063471 0 0 0
327 1 15.825041701717637 7.487528960056303 15.389184231186254 0 0 -1
126 1 1.810863481773147 8.659701122873603 1.915255583081554 1 0 0
493 1 0.3894203108135794 10.045394693379393 0.2208495593290651 0 0 0
251 1 2.331768284279952 10.70871743436834 1.2385860202247567 0 0 0
492 1 0.9981698599275501 10.002506037672212 1.644543146267928 0 0 0
298 1 0.1639850852933567 10.173273981373702 2.907828128423814 1 0 0
132 1 5.100260794660194 10.07847458997108 0.5096586647967253 1 0 0
55 1 3.7319781652337363 10.084216678720908 0.6555601368629639 1 -1 0
331 1 6.2336266199224015 10.633259845831324 1.4734342405893932 0 0 1
81 1 7.117183057973656 8.868394406778389 0.20503464179307454 0 0 0
57 1 7.379892398810127 10.258178998265892 0.7438466781663924 0 0 0
390 1 6.1496433825935615 10.707576105265048 3.027701564110945 0 -1 0
246 1 8.841227546057546 11.360995442785388 2.2499948821406233 0 0 0
212 1 10.555460974025422 9.58542459576433 2.633104115797366 0 0 1
416 1 8.673831220785077 10.839671077090804 0.9505662728945891 0 0 1
444 1 9.256585076318132 9.97614889168661 2.6025959124824736 0 0 0
95 1 13.685297342702246 10.153578362361749 2.216740764539099 -1 0 0
1 1 13.760190359210574 11.075434700874501 3.282579260151907 -1 -1 1
179 1 12.73325602616848 9.626719329254657 1.3958447510352505 0 0 0
107 1 12.199517266668082 10.04502734198095 0.07092631880563971 0 0 1
78 1 16.0225467979583 10.427136594097142 2.676221317990778 0 0 0
455 1 15.051085938668216 9.661606538006087 2.0264394345790193 0 1 1
282 1 15.53972382423332 11.251268600946691 0.11391428860743875 0 0 0
168 1 1.9674224775195912 13.642012217691265 2.0290380743512206 0 -1 0
303 1 1.6579534345051419 12.962992042570129 0.4878930360208549 0 -1 0
313 1 0.4843992311448521 13.808652051107426 2.6047663685914846 0 -1 0
499 1 2.815937977893195 13.181432116556062 3.0589269176510943 1 0 0
122 1 0.20839168585083612 12.362657426318936 0.6065694557930682 1 0 1
134 1 5.003712458418123 11.628614348738076 3.4343491725331785 0 0 0
161 1 5.109120004015483 13.402061153502462 0.03832938078774158 0 -1 1
440 1 4.353545423555074 12.779665320071787 2.587394711310854 0 0 1
359 1 4.758350886532475 13.132385269430234 1.3226125236313373 0 -1 1
290 1 9.624729191254373 12.390481146864758 2.8130542716147593 0 0 0
20 1 10.799073908998942 13.023207379415629 2.2750224998471023 0 0 0
274 1 10.75121261093684 13.75422448745488 1.1424336018816383 0 -1 1
183 1 11.69168004081876 13.999439085507946 0.1672800567341275 0 0 1
426 1 13.671375750654791 12.85002312495562 0.6112472449839763 0 -1 0
485 1 16.741691193673205 13.034994758250718 1.700692273983474 0 0 1
83 1 15.70186784803105 13.900775348767676 1.8586079803834488 -1 0 0
402 1 14.37557029725643 14.162781004828798 1.2448920814370377 0 0 1
7 1 2.0456478984151016 14.69062284212519 0.8796606350781846 1 -1 1
194 1 1.4473905470747244 15.899580058988223 0.9883241177403076 0 -1 0
262 1 1.9430609613372976 16.935987809113513 2.95371587043641 0 0 0
381 1 0.4847538156720507 15.968088605004603 0.12568205768318355 1 -1 0
294 1 3.25755616402646 16.78584164767171 2.578935478266945 0 0 0
75 1 5.5392421103890594 15.829734688801485 3.2849997160554283 0 0 0
304 1 6.748120304765625 16.777771934640654 1.0501174137066223 0 0 1
385 1 6.665840561163589 16.087942626737505 2.2824936636641953 0 -1 0
125 1 7.600068718879755 15.256782687546512 2.595667447690624 0 0 0
332 1 8.57375521656667 14.660339937883474 2.015356050876764 -1 -1 1
432 1 9.455618434938906 14.478803726450018 1.0852149937254598 0 0 1
288 1 13.04855224059944 16.20407335207376 2.0887811456997767 0 0 0
452 1 12.139489206261594 16.21885679258148 2.9717100851359795 0 0 1
326 1 13.978465750705896 15.219275479291364 1.8414624180849046 -1 0 0
46 1 14.464429591716334 16.427605516730292 2.382400537504603 0 1 0
289 1 0.20725834484478942 10.225433378274117 4.327187412735875 0 0 1
378 1 2.737968567989416 9.37750881658913 4.182673384407602 1 0 1
351 1 0.14768780613976076 8.854738871889767 5.0738325495325025 0 0 0
234 1 5.470479863947881 10.278001338215656 5.055159138505033 0 -1 0
272 1 5.404401881217937 10.00967760009116 6.484371494697989 0 1 0
9 1 3.6287189231913315 9.592279829176722 5.049719290592723 0 0 0
297 1 3.8890745096579407 9.628469930419211 6.563566749565772 0 0 0
104 1 7.919780624996232 10.16916993741536 4.758655882157828 -1 0 0
279 1 8.455497354134035 10.221188606097554 6.099621247405973 0 0 1
406 1 6.4876646286354855 9.902274699722017 4.271721825218966 0 1 1
28 1 10.119768914976438 9.24731722049072 6.214003696981118 1 0 0
123 1 10.915289084605666 10.35474612343554 6.430532744498951 -1 0 1
339 1 8.900380749173372 9.323086002689191 3.933036327118432 1 0 0
223 1 10.885449683427847 8.730938466981844 3.7385288348631818 0 0 0
33 1 11.542997849293139 11.103740197840832 5.22991467484052 0 -1 1
127 1 12.663180472550293 11.287196420039432 4.249967253101844 0 0 0
362 1 15.212527215966324 11.09945549591891 3.6288732340143177 -1 -1 0
428 1 2.2554487327481327 12.642220649773764 4.379437365558844 0 0 0
361 1 1.3351766895322277 12.353088244199878 5.3096624059726265 0 0 0
53 1 1.2015678575160451 12.864209983135298 6.651734262883105 0 0 0
476 1 0.19961085345977417 11.67887277811852 4.987913280482524 0 0 0
18 1 0.4210479352635606 14.136830041724462 6.873262921887152 0 0 1
330 1 4.347005145764317 14.304940438221319 5.91544211195763 1 0 0
394 1 3.6146092772080443 12.141119283083299 5.2730069167126805 1 -1 0
404 1 4.803991042455685 11.501371907707172 4.819997601940992 0 0 0
270 1 3.7284109381472033 13.151608856234418 6.255490493201392 1 -1 0
92 1 8.360576552427192 13.803970181900475 5.014176758131295 0 -1 0
180 1 7.077449634387877 14.0385849884896 4.853443109829412 -1 0 1
229 1 10.344323536381493 13.77394074378921 3.490669140899134 0 -1 1
31 1 9.170442907243771 13.198290023276153 4.104633008124019 0 -1 0
167 1 8.950026871503082 14.06107539263916 6.4587377842666545 0 0 0
259 1 12.103706630756367 13.695741555505446 5.364575372557668 0 0 0
305 1 12.105906180461817 12.319751406287196 5.003206463648509 0 -1 0
348 1 12.687494979794625 14.112900172648674 6.759396569795473 0 0 0
198 1 16.647496859686466 13.830506211544835 5.967479304574532 0 0 1
72 1 16.367925369893495 12.591217296675078 5.4295975846477615 -1 0 0
204 1 15.474720650359997 11.94831018388408 4.713791648696265 -1 0 0
97 1 16.92091773235393 14.253159751504242 3.7067326737951407 0 0 0
166 1 2.001438158010177 16.677358595399596 4.447551210676364 0 -1 0
334 1 1.2650931145363662 17.215249671305987 5.4676772447064845 0 0 1
221 1 4.485073138907431 16.61934588290294 6.50309825259154 0 -1 0
76 1 3.9020113049450376 15.655883642870299 5.785913065784276 0 -1 0
424 1 3.144033118528642 15.859066135307303 4.562840482024505 0 -1 1
264 1 4.11729212754544 16.3195914232276 3.467982000931304 0 -1 0
265 1 6.220022455717791 14.965283466611929 4.067690207044828 0 0 1
408 1 5.760082957893468 14.390585517580886 5.375003496111494 0 0 1
285 1 11.451068937356212 14.504349106101934 4.265261614634863 0 0 0
324 1 11.129137699020985 15.735876617493004 3.5899672257272583 0 0 0
454 1 15.272580883880854 16.636616767786204 6.064662609821547 0 -1 0
62 1 15.626617632449074 15.925290306149124 4.88677899408299 0 -1 0
186 1 16.47733354552507 14.797522788564418 4.803028426195437 -1 0 0
283 1 14.956345948780047 16.745686331868274 3.6394249481542302 0 0 0
256 1 0.35962385573881933 10.613146826663202 7.238804572147414 1 0 -1
484 1 0.7813016229857642 9.455611241133633 7.887692335756136 0 0 -1
27 1 2.125444062602692 8.880696757164404 8.21317527167512 0 0 1
63 1 3.338309331988916 9.240003519504791 7.746180989181112 0 0 0
235 1 5.725139874080351 8.62430020421793 8.55597040854642 0 0 0
59 1 6.359233107293635 9.008278903205156 7.259113884843769 1 -1 1
388 1 7.406934079616694 10.42380400165578 8.426977135371569 1 -1 0
38 1 7.514019183915684 10.566715480309558 9.779610830414718 0 -1 0
508 1 7.615699513367014 9.154382661706292 9.97475166110168 -1 1 -1
230 1 8.02153588521029 10.62011778248455 7.334232595914349 0 0 0
447 1 9.866883330722498 8.708924291371192 8.631888421822573 -1 0 0
224 1 10.17212679038521 10.104329504068371 8.795806606820063 0 1 0
317 1 10.705317556851366 10.903272595325351 7.737046280503037 0 0 0
369 1 10.360296196973414 10.172078578719244 10.029304874815528 -1 0 0
509 1 14.065282994007491 11.080591835093099 8.365591450053296 0 0 -1
162 1 13.665216463043658 11.002605113095262 9.67319969881736 -1 0 0
191 1 15.542071855788212 10.567229529274211 8.411048916428303 0 0 0
356 1 15.533822960578451 9.198577588451055 8.538985930064516 0 0 0
52 1 16.992154900148932 8.645403293125025 8.548630484821896 0 0 0
510 1 0.2749690717224611 13.928234795282755 9.412805459672818 0 -1 0
240 1 2.7763693223937937 14.002490728748173 8.485589286159707 0 0 0
505 1 1.6170649925958012 12.372668522373289 10.055830136707028 0 -1 0
398 1 0.4669809261762974 12.482222941775502 9.296202056014847 1 -1 0
419 1 2.7022579950883427 13.285134389355797 7.267547614303611 1 0 0
184 1 0.5476633127560694 11.944702567041519 7.639807775510025 0 0 0
65 1 3.594780261552779 13.850398835176291 9.627162610674539 0 0 0
50 1 4.997422030119153 14.257776547931503 9.65452349883821 0 0 0
463 1 8.54310969382956 13.488750398487047 8.611891904492428 0 0 0
236 1 8.262173137358353 12.883774283060209 9.895284597402 1 0 0
367 1 7.2870221894232 11.877506585211595 10.119614185497065 0 -1 0
329 1 10.55168780188566 12.382010320673064 8.014006870241582 0 0 -1
144 1 9.31608475815672 13.040317288355496 7.531211916719169 -1 0 0
21 1 11.635767884303556 13.042118023275654 8.660399576416266 -1 0 0
268 1 14.057702298829573 12.46959011502222 8.17412387529799 -1 0 0
318 1 12.885187610151274 13.243317553673798 7.88888960478354 0 0 0
155 1 15.308057088730536 12.956323580204694 8.748365921631931 -1 0 0
128 1 15.160777469830498 14.30516489582779 9.632544640598605 0 0 -1
141 1 16.288069649733217 11.941355289227415 8.89529801490888 -1 -1 -1
260 1 0.8203962076740885 15.473492120181081 7.434781817992902 1 -1 0
459 1 2.306600083605195 15.994911291397914 9.654169134976932 0 -1 -1
199 1 1.4435108699348582 14.892213567167307 8.803786159302403 1 -1 0
300 1 1.5515452869875241 17.19899335111405 9.251327722408856 0 -1 0
267 1 1.1408309376416315 16.751800890360855 6.896405836562268 0 -1 0
210 1 3.7517072432324343 16.284158067524096 9.26321846902118 1 -1 0
189 1 4.93535419598916 15.598928322187673 9.028750187950575 0 0 0
473 1 4.499921008204755 16.549136509610072 8.066457802463766 0 -1 0
308 1 8.860906672297324 14.919005300337567 8.471475003798297 0 0 0
460 1 10.209996160870093 16.821558979279718 8.839547956452972 -1 0 0
448 1 8.909246912735243 15.34268290917842 7.101834134353639 -1 0 0
239 1 10.812622823375321 14.736143282374748 10.024409228087812 1 0 -1
414 1 9.764875010436363 15.808030016059861 9.921479375195005 0 0 0
105 1 8.976688474449583 16.662363828129283 7.026738929618481 0 0 0
496 1 13.452220520993164 15.205855535947345 7.075041522425143 0 0 0
422 1 11.679263888945576 16.77384869647888 8.310264205620376 0 0 0
501 1 11.536000237605823 14.404311403009185 8.90810118325192 0 0 0
2 1 12.184550833004035 15.511448860460275 8.081509579971259 -1 0 0
51 1 14.491323127506615 15.938637449409766 6.976845070958752 0 0 0
253 1 16.415374451910175 16.242478781853865 9.767603891309902 -1 -1 0
502 1 16.45141927626892 14.78480040966238 9.372446432517698 0 0 0
344 1 15.136904877766378 16.36930408978961 10.14750676585583 0 -1 0
174 1 2.0833270105008306 11.134708705876108 10.907416111899721 0 0 0
458 1 1.888904903546007 10.03988792233157 11.536364280216542 0 0 0
436 1 1.6718697880731168 9.405789698506696 12.754655695729575 1 0 0
102 1 9.84308199863054 11.141993901193256 12.652103600789273 0 0 0
397 1 10.715125731313055 8.895898534295549 12.317663612031321 0 0 0
399 1 10.687185881208789 10.136834927090469 13.072281438872533 0 0 0
84 1 10.163894821788372 9.197056315051675 10.989967212042968 0 0 0
384 1 13.51862339148132 10.511427237092539 10.930261999977967 -1 0 0
323 1 14.165267021075264 9.831248689889287 11.846111073954143 0 0 0
284 1 15.922059599135938 11.46426563789334 13.081409386768215 0 0 0
349 1 15.329119643842523 10.269309751552196 12.641206978807194 0 0 0
345 1 16.30242880687258 9.186364926349656 12.679724066186004 0 0 0
103 1 1.2444531005370538 13.188851814597912 13.17768718260907 1 -1 0
227 1 0.5708852778293197 14.225870798429698 12.538755317953095 1 -1 0
337 1 2.691248368062493 13.27968901421365 10.584125446316271 0 0 0
358 1 3.0265768784868174 13.901410989744354 13.314759543408702 0 0 0
176 1 3.381270680261203 11.917825711495496 10.772061083861743 0 0 0
495 1 4.632405536005282 11.689520795784563 11.018552113034797 0 0 0
292 1 5.781096273821759 13.75540124746665 10.718358207700447 0 -1 0
395 1 7.977017978528115 14.020399759676284 13.40081784102785 0 0 -1
200 1 6.841747964179747 13.857093087240084 12.751174963037633 0 0 0
228 1 5.881559547908995 12.301641837467622 10.630634869032372 0 0 0